Compound,Smiles,Solvent,Solvent Smiles,,logS/M
Sulfathiazole,Nc1ccc(cc1)[S](=O)(=O)Nc2sccn2,1-octanol,n/a,0.00060256,-3.22
Sulfisomidine,Cc1cc(N[S](=O)(=O)c2ccc(N)cc2)nc(C)n1,1-octanol,n/a,0.000870964,-3.06
Sulfisoxazole,Cc1noc(N[S](=O)(=O)c2ccc(N)cc2)c1C,1-octanol,n/a,0.003548134,-2.45
Sulindac,CC\1=C(CC(O)=O)c2cc(F)ccc2C1=C\c3ccc(cc3)[S](C)=O,1-octanol,n/a,0.018620871,-1.73
Sulindac ethyl ester,CC\1=C(CC(OCC)=O)c2cc(F)ccc2C1=C\c3ccc(cc3)[S](C)=O,1-octanol,n/a,0.019054607,-1.72
Terbutryn,CCNc1nc(NC(C)(C)C)nc(SC)n1,1-octanol,n/a,0.537031796,-0.27
Testosterone,C[C@]12CC[C@H]3[C@@H](CCC4=CC(=O)CC[C@]34C)[C@@H]1CC[C@@H]2O,1-octanol,n/a,0.335737614,-0.474
Testosterone benzoate,CC12CCC3C(CCC4=CC(=O)CCC34C)C1CCC2OC(=O)c5ccccc5,1-octanol,n/a,0.047863009,-1.32
Testosterone phenylacetate,CC12CCC3C(CCC4=CC(=O)CCC34C)C1CCC2OC(=O)Cc5ccccc5,1-octanol,n/a,0.107151931,-0.97
Testosterone phenylbutanoate,,1-octanol,n/a,0.891250938,-0.05
Testosterone phenylpropanoate,,1-octanol,n/a,0.331131121,-0.48
Thalidomide,O=C1CCC(N2C(=O)c3ccccc3C2=O)C(=O)N1,1-octanol,n/a,0.000269153,-3.57
Theophylline,N1(C)C(=O)N(C)C=2N=CNC2C1=O,1-octanol,n/a,0.01023293,-1.99
Thianthrene,C1=CC=CC=2SC3=CC=CC=C3SC12,1-octanol,n/a,0.034673685,-1.46
Thiazafluron,CNC(=O)N(C)c1sc(nn1)C(F)(F)F,1-octanol,n/a,0.251188643,-0.6
Thioxanthen-9-one,C1=CC=CC=2SC3=CC=CC=C3C(C12)=O,1-octanol,n/a,1.042317429,0.018
Toluene,C1(=CC=CC=C1)C,1-octanol,n/a,4.720630413,0.674
trans-Chlordane,ClC1CC2C(C1Cl)C3(Cl)C(=C(Cl)C2(Cl)C3(Cl)Cl)Cl,1-octanol,n/a,0.281838293,-0.55
trans-Stilbene,C1(=CC=CC=C1)\C=C\C1=CC=CC=C1,1-octanol,n/a,0.079432823,-1.1
Triamterene,Nc1nc(N)c2nc(c3ccccc3)c(N)nc2n1,1-octanol,n/a,0.000211836,-3.674
Triazolam,Cc1nnc2CN=C(c3ccccc3Cl)c4cc(Cl)ccc4n12,1-octanol,n/a,0.008912509,-2.05
Triphenylene,C1=CC=CC=2C3=CC=CC=C3C3=CC=CC=C3C12,1-octanol,n/a,0.016982437,-1.77
Xanthene,C1=CC=CC=2OC3=CC=CC=C3CC12,1-octanol,n/a,0.24043628,-0.619
Mirex (omitted),,1-octanol,n/a,0.338844156,-0.47