key,name,smiles,mpC,csid,link,source,count,min,max,range
27481,"1,4-Dibromobenzene",C1=CC(=CC=C1Br)Br,88,13868640,http://dx.doi.org/10.1016/j.chemosphere.2013.10.095,Abraham M.H. and Acree Jr. W.E. The solubility of liquid and solid compounds in dry octan-1-ol. Chemosphere (2013),8,87,88,1
27460,"1,2,4,5-Tetrachlorobenzene",C1=C(C(=CC(=C1Cl)Cl)Cl)Cl,139,21106163,http://dx.doi.org/10.1016/j.chemosphere.2013.10.095,Abraham M.H. and Acree Jr. W.E. The solubility of liquid and solid compounds in dry octan-1-ol. Chemosphere (2013),8,139,140,1
15595,Benzene,c1ccccc1,5.5,236,http://msds.chem.ox.ac.uk/,academic website,9,5,6,1
27743,Acetanilide,CC(=O)NC1=CC=CC=C1,114,880,http://dx.doi.org/10.1016/j.chemosphere.2013.10.095,Abraham M.H. and Acree Jr. W.E. The solubility of liquid and solid compounds in dry octan-1-ol. Chemosphere (2013),9,114,115,1
28206,Ketoprofen,CC(C1=CC(=CC=C1)C(=O)C2=CC=CC=C2)C(=O)O,93,3693,http://dx.doi.org/10.1016/j.chemosphere.2013.10.095,Abraham M.H. and Acree Jr. W.E. The solubility of liquid and solid compounds in dry octan-1-ol. Chemosphere (2013),9,93,94,1
28477,Propyl 4-hydroxybenzoate,CCCOC(=O)C1=CC=C(C=C1)O,96,6907,http://dx.doi.org/10.1016/j.chemosphere.2013.10.095,Abraham M.H. and Acree Jr. W.E. The solubility of liquid and solid compounds in dry octan-1-ol. Chemosphere (2013),12,96,97,1
27849,Benzoic acid,C1=CC=C(C=C1)C(=O)O,122,238,http://dx.doi.org/10.1016/j.chemosphere.2013.10.095,Abraham M.H. and Acree Jr. W.E. The solubility of liquid and solid compounds in dry octan-1-ol. Chemosphere (2013),14,122,123,1
6489,benzyl mercaptan,c1ccc(cc1)CS,-30,13851383,http://www.alfa.com/en/GP100W.pgm?DSSTK=B20081,Alfa Aesar,4,-30,-29,1
6693,cyclobutanone,C1CC(=O)C1,-51,13840,http://www.alfa.com/en/GP100W.pgm?DSSTK=A13068,Alfa Aesar,3,-52,-50.9,1.1
6545,bis(4-chlorophenyl) sulfone,c1cc(ccc1S(=O)(=O)c2ccc(cc2)Cl)Cl,149,6373,http://www.alfa.com/en/GP100W.pgm?DSSTK=A18938,Alfa Aesar,2,147.9,149,1.1
3510,"3,5-dimethylbenzoic acid",Cc1cc(cc(c1)C(=O)O)C,170,9929,http://www.alfa.com/en/GP100W.pgm?DSSTK=A11198,Alfa Aesar,2,170,171.1,1.1
613,"1,3-bis(4-piperidinyl)propane",C1CNCCC1CCCC2CCNCC2,66,77230,http://www.alfa.com/en/GP100W.pgm?DSSTK=L20442,Alfa Aesar,2,66,67.1,1.1
4074,3-methyl-2-butanone,CC(C)C(=O)C,-92,10777,http://www.alfa.com/en/GP100W.pgm?DSSTK=B24527,Alfa Aesar,3,-93.1,-92,1.1
16062,Pentan-2-one,CC(=O)CCC,-78,7607,http://msds.chem.ox.ac.uk/,academic website,4,-78,-76.9,1.1
18592,(1r)-(-)-fenchone,CC2(C)C(=O)C1(C)CCC2C1,5,13869,http://www.srcinc.com/what-we-do/product.aspx?id=133,PHYSPROP,3,5,6.1,1.1
15726,Diiodomethane,ICI,5,6106,http://msds.chem.ox.ac.uk/,academic website,4,5,6.1,1.1
15053,1-Methoxy-2-nitrobenzene,COc1ccccc1[N+]([O-])=O,9.4,6781,http://msds.chem.ox.ac.uk/,academic website,4,9.4,10.5,1.1
15259,2-Fluorophenol,Fc1ccccc1O,15,9326,http://msds.chem.ox.ac.uk/,academic website,3,15,16.1,1.1
15612,Benzophenone,O=C(c1ccccc1)c2ccccc2,48,2991,http://msds.chem.ox.ac.uk/,academic website,5,47.9,49,1.1
28436,phenol,C1=CC=C(C=C1)O,41,971,http://dx.doi.org/10.1016/j.chemosphere.2013.10.095,Abraham M.H. and Acree Jr. W.E. The solubility of liquid and solid compounds in dry octan-1-ol. Chemosphere (2013),7,40.9,42,1.1
178,1-heptene,CCCCCC=C,-119,11121,http://www.alfa.com/en/GP100W.pgm?DSSTK=L11487,Alfa Aesar,4,-120.15,-119,1.15
8186,octanoic acid,CCCCCCCC(=O)O,17,370,http://www.alfa.com/en/GP100W.pgm?DSSTK=A11149,Alfa Aesar,6,15.85,17,1.15
7443,mesitylacetic acid,Cc1cc(c(c(c1)C)CC(=O)O)C,169,70500,http://www.alfa.com/en/GP100W.pgm?DSSTK=L00334,Alfa Aesar,2,167.85,169,1.15
13111,butane,CCCC,-138,7555,http://www.amazon.com/dp/B002IYRJWI,American Petroleum Institute. Research Project 44; Selected Values of Properties of Hydrocarbons and Related Compounds. Texas A & M University; College Station; TX; 1973.,4,-138.34,-137.15,1.19
8284,phthalic anhydride,c1ccc2c(c1)C(=O)OC2=O,132,6552,http://www.alfa.com/en/GP100W.pgm?DSSTK=41771,Alfa Aesar,2,130.8,132,1.2
15632,Bromoethene,BrC=C,-139,11151,http://msds.chem.ox.ac.uk/,academic website,2,-139,-137.8,1.2
15578,Adipic acid,OC(=O)CCCCC(=O)O,152,191,http://msds.chem.ox.ac.uk/,academic website,4,152,153.2,1.2
16189,Triphenylmethanol,OC(c1ccccc1)(c2ccccc2)c3ccccc3,163,6215,http://msds.chem.ox.ac.uk/,academic website,4,163,164.2,1.2
27655,4-Aminobenzoic acid,C1=CC(=CC=C1C(=O)O)N,189,953,http://dx.doi.org/10.1016/j.chemosphere.2013.10.095,Abraham M.H. and Acree Jr. W.E. The solubility of liquid and solid compounds in dry octan-1-ol. Chemosphere (2013),11,187.8,189,1.2
15026,"1-Fluoro-2,4-dinitrobenzene",Fc1ccc(cc1[N+](=O)[O-])[N+]([O-])=O,27,21106037,http://msds.chem.ox.ac.uk/,academic website,3,25.8,27,1.2
15752,Diphenyl ether,c1ccccc1Oc2ccccc2,27,7302,http://msds.chem.ox.ac.uk/,academic website,4,26.8,28,1.2
5145,4-fluoroaniline,c1cc(ccc1N)F,-2,9349,http://www.alfa.com/en/GP100W.pgm?DSSTK=A15597,Alfa Aesar,2,-2,-0.8,1.2
82,1-pentadecene,CCCCCCCCCCCCCC=C,-4,24142,http://www.alfa.com/en/GP100W.pgm?DSSTK=H53516,Alfa Aesar,3,-4,-2.8,1.2
15276,2-Methoxyaniline,Nc1ccccc1OC,5,13860775,http://msds.chem.ox.ac.uk/,academic website,4,5,6.2,1.2
16054,Pentadecafluorooctanoic acid,FC(F)(C(F)(F)C(=O)O)C(F)(F)C(F)(F)C(F)(F)C(F)(F)C(F)(F)F,55.5,9180,http://msds.chem.ox.ac.uk/,academic website,2,54.3,55.5,1.2
5153,4-fluorobenzonitrile,c1cc(ccc1C#N)F,36,13861,http://www.alfa.com/en/GP100W.pgm?DSSTK=A13028,Alfa Aesar,2,34.8,36,1.2
404,"1,9-nonanediol",C(CCCCO)CCCCO,47,18685,http://www.alfa.com/en/GP100W.pgm?DSSTK=L06336,Alfa Aesar,2,45.8,47,1.2
3012,2-phenoxyaniline,c1ccc(cc1)Oc2ccccc2N,47,68404,http://www.alfa.com/en/GP100W.pgm?DSSTK=L05558,Alfa Aesar,2,45.8,47,1.2
15815,"Furan-2,5-dione",O=C1C=CC(=O)O1,53,7635,http://msds.chem.ox.ac.uk/,academic website,3,52.8,54,1.2
13864,1-aminonaphthalene,Nc2cccc1ccccc12,49,8319,http://www.amazon.com/dp/B003XEQTLE,Aldrich Chemical Company; Aldrich Catalog-Handbook of Fine Chemicals; Milwaukee; WI; 1984.,3,48,49.2,1.2
15927,Myristic acid,O=C(O)CCCCCCCCCCCCC,55.1,10539,http://msds.chem.ox.ac.uk/,academic website,3,53.9,55.1,1.2
16157,Triacontane,CCCCCCCCCCCCCCCCCCCCCCCCCCCCCC,66,12018,http://msds.chem.ox.ac.uk/,academic website,3,65.8,67,1.2
14498,diphenyl_sulfoxide,O=S(c1ccccc1)c2ccccc2,70,13090,http://www.amazon.com/dp/B003XEQTLE,Aldrich Chemical Company; Aldrich Catalog-Handbook of Fine Chemicals; Milwaukee; WI; 1984.,3,70,71.2,1.2
13238,butyramide,CCCC(N)=O,116,10464,http://www.amazon.com/dp/B003XEQTLE,Aldrich Chemical Company; Aldrich Catalog-Handbook of Fine Chemicals; Milwaukee; WI; 1984.,4,114.8,116,1.2
28552,Sulfanilamide,C1=CC(=CC=C1N)S(=O)(=O)N,166.2,5142,http://dx.doi.org/10.1016/j.chemosphere.2013.10.095,Abraham M.H. and Acree Jr. W.E. The solubility of liquid and solid compounds in dry octan-1-ol. Chemosphere (2013),7,165,166.2,1.2
3347,"3,4-dimethoxyphenylacetonitrile",COc1ccc(cc1OC)CC#N,64,60093,http://www.alfa.com/en/GP100W.pgm?DSSTK=A12003,Alfa Aesar,2,62.75,64,1.25
8340,p-xylene,Cc1ccc(cc1)C,12,7521,http://www.alfa.com/en/GP100W.pgm?DSSTK=A10534,Alfa Aesar,3,12,13.25,1.25
14970,"1,4-Dithiane",C1CSCCS1,111,10020,http://msds.chem.ox.ac.uk/,academic website,2,111,112.3,1.3
2791,2-mercapto-4-methylthiazole,Cc1csc(n1)S,88,1013221,http://www.alfa.com/en/GP100W.pgm?DSSTK=A19520,Alfa Aesar,2,88,89.3,1.3
15817,Glutaric acid,O=C(O)CCCC(=O)O,96.5,723,http://msds.chem.ox.ac.uk/,academic website,3,96.5,97.8,1.3
17130,cyproheptadine,CN1CCC(CC1)=C2c4ccccc4C=Cc3ccccc23,112.8,2810,http://dx.doi.org/10.1021/ci700307p,Hughes LD; Palmer DS; Nigsch F and Mitchell JBO. 2008 Why are some properties more difficult to predict than others? A study of QSPR models of solubility; melting point and LogP. J. Chem. Inf. Model. 2008. 48 (1). pp 220?277,3,111.5,112.8,1.3
15825,Heptadecanoic acid,O=C(O)CCCCCCCCCCCCCCCC,60,10033,http://msds.chem.ox.ac.uk/,academic website,3,60,61.3,1.3
13786,o-chlorobenzonitrile,N#Cc1ccccc1Cl,45,12818,http://www.amazon.com/dp/B003XEQTLE,Aldrich Chemical Company; Aldrich Catalog-Handbook of Fine Chemicals; Milwaukee; WI; 1984.,3,45,46.3,1.3
14556,3-nitrobenzyl_bromide,O=[N+]([O-])c1cc(CBr)ccc1,59,69973,http://www.amazon.com/dp/B003XEQTLE,Aldrich Chemical Company; Aldrich Catalog-Handbook of Fine Chemicals; Milwaukee; WI; 1984.,3,58,59.3,1.3
663,"1,2-dichlorobenzene",c1ccc(c(c1)Cl)Cl,-18,13837988,http://www.alfa.com/en/GP100W.pgm?DSSTK=32154,Alfa Aesar,3,-18,-16.7,1.3
13849,1-bromo-2-chloroethane,BrCCCl,-17,13854130,http://www.amazon.com/dp/B003XEQTLE,Aldrich Chemical Company; Aldrich Catalog-Handbook of Fine Chemicals; Milwaukee; WI; 1984.,3,-18,-16.7,1.3
7737,m-toluidine,Cc1cccc(c1)N,-30,13860692,http://www.alfa.com/en/GP100W.pgm?DSSTK=A14058,Alfa Aesar,3,-31.3,-30,1.3
12815,"2,2'-binaphthalene",c1ccc2cc(ccc2c1)c1ccc2ccccc2c1,187,62381,http://dx.doi.org/10.1021/ci0500132,Karthikeyan M.; Glen R.C.; Bender A. General melting point prediction based on a diverse compound dataset and artificial neural networks. J. Chem. Inf. Model.; 2005; 45(3); 581-4397,2,187,188.3,1.3
3032,2-phenylimidazole,c1ccc(cc1)c2[nH]ccn2,148,62795,http://www.alfa.com/en/GP100W.pgm?DSSTK=B23858,Alfa Aesar,2,148,149.3,1.3
14651,m-iodobenzoic_acid,OC(=O)c1cc(I)ccc1,187,11563,http://www.amazon.com/dp/B003XEQTLE,Aldrich Chemical Company; Aldrich Catalog-Handbook of Fine Chemicals; Milwaukee; WI; 1984.,3,187,188.3,1.3
15593,Benzaldehyde,O=Cc1ccccc1,-56,235,http://msds.chem.ox.ac.uk/,academic website,4,-56.9,-55.6,1.3
1996,"2-amino-5-ethyl-1,3,4-thiadiazole",CCc1nnc(s1)N,200,24633,http://www.alfa.com/en/GP100W.pgm?DSSTK=L06915,Alfa Aesar,2,200,201.35,1.35
15515,"5-Chloro-2-(2,4-dichlorophenoxy)phenol",Clc2cc(Cl)ccc2Oc1ccc(Cl)cc1O,57,5363,http://msds.chem.ox.ac.uk/,academic website,3,55.65,57,1.35
2929,2-methylnaphthalene,Cc1ccc2ccccc2c1,33,6788,http://www.alfa.com/en/GP100W.pgm?DSSTK=L02459,Alfa Aesar,2,33,34.4,1.4
15328,2-Phenyloxirane,c1ccccc1C2CO2,-37,7005,http://msds.chem.ox.ac.uk/,academic website,2,-37,-35.6,1.4
286,1-bromo-4-fluorobenzene,c1cc(ccc1F)Br,-16,13875180,http://www.alfa.com/en/GP100W.pgm?DSSTK=A11630,Alfa Aesar,2,-17.4,-16,1.4
16169,Tricosane,CCCCCCCCCCCCCCCCCCCCCCC,49,12017,http://msds.chem.ox.ac.uk/,academic website,3,47.6,49,1.4
15840,Hexafluorobenzene,Fc1c(F)c(F)c(F)c(F)c1F,3.9,13836549,http://msds.chem.ox.ac.uk/,academic website,3,3.9,5.3,1.4
576,"1,3-diethoxybenzene",CCOc1cccc(c1)OCC,11,67462,http://www.alfa.com/en/GP100W.pgm?DSSTK=A11338,Alfa Aesar,2,11,12.4,1.4
15004,1-Chloro-2-(trifluoromethyl)benzene,FC(F)(F)c1ccccc1Cl,-7.4,6655,http://msds.chem.ox.ac.uk/,academic website,3,-7.4,-6,1.4
582,"1,3-dichloro-5-nitrobenzene",c1c(cc(cc1Cl)Cl)[N+](=O)[O-],64,11567,http://www.alfa.com/en/GP100W.pgm?DSSTK=B25584,Alfa Aesar,2,64,65.4,1.4
15804,Ethyl formate,O=COCC,-81,7734,http://msds.chem.ox.ac.uk/,academic website,4,-81,-79.6,1.4
28309,Nicotinic acid,C1=CC(=CN=C1)C(=O)O,236.6,913,http://dx.doi.org/10.1016/j.chemosphere.2013.10.095,Abraham M.H. and Acree Jr. W.E. The solubility of liquid and solid compounds in dry octan-1-ol. Chemosphere (2013),8,236.6,238,1.4
16150,Thiophene,c1cccs1,-38,7739,http://msds.chem.ox.ac.uk/,academic website,8,-39.4,-38,1.4
28118,fluoromethane,CF,-143.3,11148,http://www.hbcpnetbase.com/,CRC Handbook,3,-143.3,-141.8,1.5
837,1-(2-methoxyphenyl)piperazine,COc1ccccc1N2CCNCC2,37,1306,http://www.alfa.com/en/GP100W.pgm?DSSTK=A15819,Alfa Aesar,2,37,38.5,1.5
15064,"1-Methyl-4-phenyl-1,2,3,6-tetrahydropyridine",CN1CC=C(CC1)c2ccccc2,38.5,1346,http://msds.chem.ox.ac.uk/,academic website,2,38.5,40,1.5
967,2-(4-chlorophenoxy)isobutyric acid,CC(C)(C(=O)O)Oc1ccc(cc1)Cl,120,2695,http://www.alfa.com/en/GP100W.pgm?DSSTK=A17624,Alfa Aesar,2,118.5,120,1.5
9001,ubenimex,CC(C)CC(NC(=O)C(O)C(N)Cc1ccccc1)C(O)=O,233,3125,http://dx.doi.org/10.1021/ci020280x,Bergstrom C. A. S.; Norinder U.; Luthman K.; Artursson P. Molecular Descriptors Influencing Melting Point and Their Role in Classification of Solid Drugs. J. Chem. Inf. Comput. Sci.; (Article); 2003; 43(4); 1177-1447,2,233,234.5,1.5
15512,"5-Amino-1-[2,6-dichloro-4-(trifluoromethyl)phenyl]-4-[(trifluoromethyl)sulfinyl]-1H-pyrazole-3-carbonitrile",FC(F)(F)S(=O)c1c(N)n(nc1C#N)c2c(Cl)cc(cc2Cl)C(F)(F)F,199,3235,http://msds.chem.ox.ac.uk/,academic website,2,199,200.5,1.5
2707,2-hydroxy-4-methoxybenzophenone,COc1ccc(c(c1)O)C(=O)c2ccccc2,64,4471,http://www.alfa.com/en/GP100W.pgm?DSSTK=A17662,Alfa Aesar,2,64,65.5,1.5
8984,proglumide,CCCN(CCC)C(=O)C(CCC(O)=O)NC(=O)c1ccccc1,142,4753,http://dx.doi.org/10.1021/ci020280x,Bergstrom C. A. S.; Norinder U.; Luthman K.; Artursson P. Molecular Descriptors Influencing Melting Point and Their Role in Classification of Solid Drugs. J. Chem. Inf. Comput. Sci.; (Article); 2003; 43(4); 1177-1430,2,142,143.5,1.5
17193,propoxur,CC(C)Oc1ccccc1OC(=O)NC,91.5,4775,http://dx.doi.org/10.1021/ci700307p,Hughes LD; Palmer DS; Nigsch F and Mitchell JBO. 2008 Why are some properties more difficult to predict than others? A study of QSPR models of solubility; melting point and LogP. J. Chem. Inf. Model. 2008. 48 (1). pp 220?340,2,90,91.5,1.5
8992,terbutaline,CC(C)(C)NCC(O)c1cc(O)cc(O)c1,119,5210,http://dx.doi.org/10.1021/ci020280x,Bergstrom C. A. S.; Norinder U.; Luthman K.; Artursson P. Molecular Descriptors Influencing Melting Point and Their Role in Classification of Solid Drugs. J. Chem. Inf. Comput. Sci.; (Article); 2003; 43(4); 1177-1438,2,119,120.5,1.5
2750,2-hydroxyquinoline,c1ccc2c(c1)ccc(=O)[nH]2,198,5816,http://www.alfa.com/en/GP100W.pgm?DSSTK=B23064,Alfa Aesar,2,198,199.5,1.5
13261,2-methyl-2-propanethiol,CC(C)(C)S,1,6147,http://www.amazon.com/dp/B002IYRJWI,American Petroleum Institute. Research Project 44; Selected Values of Properties of Hydrocarbons and Related Compounds. Texas A & M University; College Station; TX; 1973.,2,-0.5,1,1.5
6638,chlorotriphenylmethane,c1ccc(cc1)C(c2ccccc2)(c3ccccc3)Cl,112,6214,http://www.alfa.com/en/GP100W.pgm?DSSTK=A11799,Alfa Aesar,2,112,113.5,1.5
7909,naphthalene-1-carbonitrile,c1ccc2c(c1)cccc2C#N,36,6585,http://www.alfa.com/en/GP100W.pgm?DSSTK=L14498,Alfa Aesar,2,36,37.5,1.5
15980,Naphthalen-2-amine,Nc1ccc2ccccc2c1,111.5,6790,http://msds.chem.ox.ac.uk/,academic website,2,111.5,113,1.5
4806,4-bromobiphenyl,c1ccc(cc1)c2ccc(cc2)Br,90,6834,http://www.alfa.com/en/GP100W.pgm?DSSTK=A12638,Alfa Aesar,2,90,91.5,1.5
2945,2-naphthoic acid,c1ccc2cc(ccc2c1)C(=O)O,184,6856,http://www.alfa.com/en/GP100W.pgm?DSSTK=L05102,Alfa Aesar,2,184,185.5,1.5
2553,2-ethoxynaphthalene,CCOc1ccc2ccccc2c1,36,6862,http://www.alfa.com/en/GP100W.pgm?DSSTK=B23327,Alfa Aesar,2,36,37.5,1.5
15526,5-Oxo-L-proline,O=C(O)[C@@H]1CCC(=O)N1,161.5,7127,http://msds.chem.ox.ac.uk/,academic website,2,160,161.5,1.5
2882,2-methyl-4-nitroaniline,Cc1cc(ccc1N)[N+](=O)[O-],132,7163,http://www.alfa.com/en/GP100W.pgm?DSSTK=A15941,Alfa Aesar,2,132,133.5,1.5
14484,1-tridecanol,CCCCCCCCCCCCCO,34,7915,http://www.amazon.com/dp/B003XEQTLE,Aldrich Chemical Company; Aldrich Catalog-Handbook of Fine Chemicals; Milwaukee; WI; 1984.,2,32.5,34,1.5
3984,3-hydroxy-2-methyl-4-pyrone,Cc1c(c(=O)cco1)O,163,8066,http://www.alfa.com/en/GP100W.pgm?DSSTK=A10735,Alfa Aesar,2,161.5,163,1.5
8197,o-tolidine,Cc1cc(ccc1N)c2ccc(c(c2)C)N,130,8106,http://www.alfa.com/en/GP100W.pgm?DSSTK=A17837,Alfa Aesar,2,130,131.5,1.5
97,1-naphthylacetonitrile,c1ccc2c(c1)cccc2CC#N,34,8277,http://www.alfa.com/en/GP100W.pgm?DSSTK=L06696,Alfa Aesar,2,32.5,34,1.5
574,"1,3-dihydroxynaphthalene",c1ccc2c(c1)cc(cc2O)O,125,8282,http://www.alfa.com/en/GP100W.pgm?DSSTK=A17739,Alfa Aesar,2,123.5,125,1.5
7383,isopropyl palmitate,CCCCCCCCCCCCCCCC(=O)OC(C)C,12,8567,http://www.alfa.com/en/GP100W.pgm?DSSTK=L04276,Alfa Aesar,2,12,13.5,1.5
6794,dibenzyl disulfide,c1ccc(cc1)CSSCc2ccccc2,70,8662,http://www.alfa.com/en/GP100W.pgm?DSSTK=L11850,Alfa Aesar,2,70,71.5,1.5
15564,Acenaphthylene,c1cc2cccc3C=Cc(c1)c23,91,8807,http://msds.chem.ox.ac.uk/,academic website,2,91,92.5,1.5
1609,"2,5-dichlorophenylhydrazine",c1cc(c(cc1Cl)NN)Cl,104,8998,http://www.alfa.com/en/GP100W.pgm?DSSTK=L06708,Alfa Aesar,2,102.5,104,1.5
14957,"1,3-Thiazolidine-4-carboxylic acid",O=C(O)C1CSCN1,195,9546,http://msds.chem.ox.ac.uk/,academic website,2,195,196.5,1.5
4359,4-(trifluoromethyl)benzoic acid,c1cc(ccc1C(=O)O)C(F)(F)F,221,9572,http://www.alfa.com/en/GP100W.pgm?DSSTK=A14494,Alfa Aesar,2,219.5,221,1.5
8528,thiophene-2-carboxylic acid,c1cc(sc1)C(=O)O,128,10250,http://www.alfa.com/en/GP100W.pgm?DSSTK=A12514,Alfa Aesar,2,128,129.5,1.5
5286,4-isopropylbenzoic acid,CC(C)c1ccc(cc1)C(=O)O,119,10363,http://www.alfa.com/en/GP100W.pgm?DSSTK=B20704,Alfa Aesar,2,117.5,119,1.5
4017,3-hydroxyflavone,c1ccc(cc1)c2c(c(=O)c3ccccc3o2)O,170,10871,http://www.alfa.com/en/GP100W.pgm?DSSTK=A18110,Alfa Aesar,2,170,171.5,1.5
14981,"1,8-Dinitronaphthalene",[O-][N+](=O)c1cccc2cccc([N+]([O-])=O)c12,171.5,11271,http://msds.chem.ox.ac.uk/,academic website,2,171.5,173,1.5
14320,"2,2'-dimethylbiphenyl",Cc2ccccc2c1ccccc1C,18,11304,http://www.amazon.com/dp/B002IYRJWI,American Petroleum Institute. Research Project 44; Selected Values of Properties of Hydrocarbons and Related Compounds. Texas A & M University; College Station; TX; 1973.,2,18,19.5,1.5
1711,"2,6-dibromophenol",c1cc(c(c(c1)Br)O)Br,55,11354,http://www.alfa.com/en/GP100W.pgm?DSSTK=A10573,Alfa Aesar,2,55,56.5,1.5
4118,3-methylquinoline,Cc1cc2ccccc2nc1,15,11432,http://www.alfa.com/en/GP100W.pgm?DSSTK=A13109,Alfa Aesar,2,15,16.5,1.5
2488,2-chlorophenoxyacetic acid,c1ccc(c(c1)OCC(=O)O)Cl,150,11475,http://www.alfa.com/en/GP100W.pgm?DSSTK=L00926,Alfa Aesar,2,148.5,150,1.5
15179,"2,5-Dichloro-1,4-benzoquinone",O=C1C=C(Cl)C(=O)C=C1Cl,161.5,11516,http://msds.chem.ox.ac.uk/,academic website,2,160,161.5,1.5
4418,"4,4'-dihydroxydiphenylmethane",c1cc(ccc1Cc2ccc(cc2)O)O,161,11614,http://www.alfa.com/en/GP100W.pgm?DSSTK=A11417,Alfa Aesar,2,161,162.5,1.5
3994,3-hydroxy-4-methoxybenzoic acid,COc1ccc(cc1O)C(=O)O,253,12055,http://www.alfa.com/en/GP100W.pgm?DSSTK=A13709,Alfa Aesar,2,251.5,253,1.5
8348,pyridine n-oxide,c1cc[n+](cc1)[O-],64,12229,http://www.alfa.com/en/GP100W.pgm?DSSTK=A10419,Alfa Aesar,2,64,65.5,1.5
6183,6-nitropiperonal,c1c(c(cc2c1OCO2)[N+](=O)[O-])C=O,95,12310,http://www.alfa.com/en/GP100W.pgm?DSSTK=A14039,Alfa Aesar,2,93.5,95,1.5
7180,ethyl indole-3-acetate,CCOC(=O)Cc1c[nH]c2c1cccc2,43,12523,http://www.alfa.com/en/GP100W.pgm?DSSTK=A13474,Alfa Aesar,2,43,44.5,1.5
6668,"cis-5-norbornene-endo-2,3-dicarboxylic anhydride",C1C2C=CC1C3C2C(=O)OC3=O,166,12668,http://www.alfa.com/en/GP100W.pgm?DSSTK=B24951,Alfa Aesar,2,164.5,166,1.5
6960,diphenyl phosphate,c1ccc(cc1)OP(=O)(O)Oc2ccccc2,66,12722,http://www.alfa.com/en/GP100W.pgm?DSSTK=L02121,Alfa Aesar,2,66,67.5,1.5
8139,N-phenylmaleimide,c1ccc(cc1)N2C(=O)C=CC2=O,89,13073,http://www.alfa.com/en/GP100W.pgm?DSSTK=A14616,Alfa Aesar,2,89,90.5,1.5
15955,"N,N-Dimethyl-2,2-diphenylacetamide",O=C(C(c1ccccc1)c2ccccc2)N(C)C,133.5,13133,http://msds.chem.ox.ac.uk/,academic website,2,133.5,135,1.5
3031,2-phenylhydroquinone,c1ccc(cc1)c2cc(ccc2O)O,101,13493,http://www.alfa.com/en/GP100W.pgm?DSSTK=B20708,Alfa Aesar,2,101,102.5,1.5
3487,"3,5-dimethoxybenzoic acid",COc1cc(cc(c1)OC)C(=O)O,184,13693,http://www.alfa.com/en/GP100W.pgm?DSSTK=A14374,Alfa Aesar,2,184,185.5,1.5
2218,2-bromofluorene,c1ccc-2c(c1)Cc3c2ccc(c3)Br,112,13697,http://www.alfa.com/en/GP100W.pgm?DSSTK=L07589,Alfa Aesar,2,112,113.5,1.5
6905,dimethyl isophthalate,COC(=O)c1cccc(c1)C(=O)OC,69,14360,http://www.alfa.com/en/GP100W.pgm?DSSTK=B23779,Alfa Aesar,2,67.5,69,1.5
2126,"2-bromo-4,6-dinitroaniline",c1c(cc(c(c1[N+](=O)[O-])N)Br)[N+](=O)[O-],152,14979,http://www.alfa.com/en/GP100W.pgm?DSSTK=B22905,Alfa Aesar,2,152,153.5,1.5
5934,5-hydroxyindole,c1cc2c(cc[nH]2)cc1O,109,15244,http://www.alfa.com/en/GP100W.pgm?DSSTK=L00858,Alfa Aesar,2,107.5,109,1.5
7470,"methyl 2,4-dihydroxybenzoate",COC(=O)c1ccc(cc1O)O,118,15663,http://www.alfa.com/en/GP100W.pgm?DSSTK=B24757,Alfa Aesar,2,118,119.5,1.5
6294,9-fluorenone oxime,c1ccc2c(c1)-c3ccccc3C2=NO,194,15683,http://www.alfa.com/en/GP100W.pgm?DSSTK=L03950,Alfa Aesar,2,194,195.5,1.5
6026,5-phenylvaleric acid,c1ccc(cc1)CCCCC(=O)O,59,15886,http://www.alfa.com/en/GP100W.pgm?DSSTK=A10499,Alfa Aesar,2,57.5,59,1.5