key,name,smiles,mpC,csid,link,source,count,min,max,range
6547,bis(4-fluoro-3-nitrophenyl) sulfone,c1cc(c(cc1S(=O)(=O)c2ccc(c(c2)[N+](=O)[O-])F)[N+](=O)[O-])F,194,9028,http://www.alfa.com/en/GP100W.pgm?DSSTK=L16742,Alfa Aesar,2,193.5,194,0.5
3289,"3,4-dichlorobenzotrifluoride",c1cc(c(cc1C(F)(F)F)Cl)Cl,-12,9109,http://www.alfa.com/en/GP100W.pgm?DSSTK=A15098,Alfa Aesar,2,-12.5,-12,0.5
6063,6-aminonicotinamide,c1cc(ncc1C(=O)N)N,247,9128,http://www.alfa.com/en/GP100W.pgm?DSSTK=L06692,Alfa Aesar,2,246.5,247,0.5
17313,linuron,Clc1ccc(NC(=O)N(C)OC)cc1Cl,93.5,9130,http://dx.doi.org/10.1021/ci700307p,Hughes LD; Palmer DS; Nigsch F and Mitchell JBO. 2008 Why are some properties more difficult to predict than others? A study of QSPR models of solubility; melting point and LogP. J. Chem. Inf. Model. 2008. 48 (1). pp 220?460,2,93,93.5,0.5
8788,carbutamide,CCCCNC(=O)NS(=O)(=O)c1ccc(N)cc1,144,9189,http://dx.doi.org/10.1021/ci020280x,Bergstrom C. A. S.; Norinder U.; Luthman K.; Artursson P. Molecular Descriptors Influencing Melting Point and Their Role in Classification of Solid Drugs. J. Chem. Inf. Comput. Sci.; (Article); 2003; 43(4); 1177-1234,2,144,144.5,0.5
3178,3'-(trifluoromethyl)acetanilide,CC(=O)Nc1cccc(c1)C(F)(F)F,105,9219,http://www.alfa.com/en/GP100W.pgm?DSSTK=A16098,Alfa Aesar,2,104.5,105,0.5
7279,heptafluorobutyric acid,C(=O)(C(C(C(F)(F)F)(F)F)(F)F)O,-18,9394,http://www.alfa.com/en/GP100W.pgm?DSSTK=A14907,Alfa Aesar,2,-18,-17.5,0.5
3184,3-(trifluoromethyl)benzoic acid,c1cc(cc(c1)C(F)(F)F)C(=O)O,105,9569,http://www.alfa.com/en/GP100W.pgm?DSSTK=A16737,Alfa Aesar,2,105,105.5,0.5
8325,p-toluenesulfonyl fluoride,Cc1ccc(cc1)S(=O)(=O)F,41,9571,http://www.alfa.com/en/GP100W.pgm?DSSTK=L12204,Alfa Aesar,2,41,41.5,0.5
6819,diethoxymethane,CCOCOCC,-66,9630,http://www.alfa.com/en/GP100W.pgm?DSSTK=B23134,Alfa Aesar,2,-66.5,-66,0.5
8978,phenadoxone,CCC(=O)C(CC(C)N1CCOCC1)(c2ccccc2)c3ccccc3,75,9686,http://dx.doi.org/10.1021/ci020280x,Bergstrom C. A. S.; Norinder U.; Luthman K.; Artursson P. Molecular Descriptors Influencing Melting Point and Their Role in Classification of Solid Drugs. J. Chem. Inf. Comput. Sci.; (Article); 2003; 43(4); 1177-1424,2,75,75.5,0.5
8383,quinoline-4-carboxylic acid,c1ccc2c(c1)c(ccn2)C(=O)O,254,9826,http://www.alfa.com/en/GP100W.pgm?DSSTK=L14611,Alfa Aesar,2,254,254.5,0.5
1510,"2,4-dihydroxypteridine",c1cnc2c(n1)c(=O)[nH]c(=O)[nH]2,348,9832,http://www.alfa.com/en/GP100W.pgm?DSSTK=L06732,Alfa Aesar,2,348,348.5,0.5
7330,indole-3-carboxaldehyde,c1ccc2c(c1)c(c[nH]2)C=O,197,9838,http://www.alfa.com/en/GP100W.pgm?DSSTK=A15330,Alfa Aesar,2,196.5,197,0.5
3972,3-furoic acid,c1cocc1C(=O)O,122,9849,http://www.alfa.com/en/GP100W.pgm?DSSTK=L11629,Alfa Aesar,2,122,122.5,0.5
7322,iminodibenzyl,c1ccc2c(c1)CCc3ccccc3N2,107,9886,http://www.alfa.com/en/GP100W.pgm?DSSTK=A19204,Alfa Aesar,2,106.5,107,0.5
989,2(5h)-furanone,C1C=CC(=O)O1,4,9917,http://www.alfa.com/en/GP100W.pgm?DSSTK=L13142,Alfa Aesar,2,4,4.5,0.5
2050,2-aminopyridine,c1ccnc(c1)N,58,10008,http://www.alfa.com/en/GP100W.pgm?DSSTK=A12374,Alfa Aesar,2,57.5,58,0.5
13714,1-methyl-2-isopropylbenzene,Cc1ccccc1C(C)C,-72,10253,http://www.amazon.com/dp/B002IYRJWI,American Petroleum Institute. Research Project 44; Selected Values of Properties of Hydrocarbons and Related Compounds. Texas A & M University; College Station; TX; 1973.,2,-72,-71.5,0.5
14164,o-dinitrobenzene,O=[N+]([O-])c1ccccc1[N+]([O-])=O,118,10257,http://www.amazon.com/dp/B003XEQTLE,Aldrich Chemical Company; Aldrich Catalog-Handbook of Fine Chemicals; Milwaukee; WI; 1984.,2,118,118.5,0.5
6800,dibenzyl sulfide,c1ccc(cc1)CSCc2ccccc2,49,10407,http://www.alfa.com/en/GP100W.pgm?DSSTK=B22337,Alfa Aesar,2,49,49.5,0.5
387,14-heptacosanone,CCCCCCCCCCCCCC(=O)CCCCCCCCCCCCC,78,10490,http://www.alfa.com/en/GP100W.pgm?DSSTK=B20191,Alfa Aesar,2,77.5,78,0.5
6697,cycloheptatriene,C1C=CC=CC=C1,-80,10534,http://www.alfa.com/en/GP100W.pgm?DSSTK=A17064,Alfa Aesar,2,-80,-79.5,0.5
15038,1H-Phenalen-1-one,O=C3C=Cc2cccc1cccc3c12,154.5,10582,http://msds.chem.ox.ac.uk/,academic website,2,154,154.5,0.5
13137,3-methyl-1-butene,C=CC(C)C,-168,10765,http://www.amazon.com/dp/B002IYRJWI,American Petroleum Institute. Research Project 44; Selected Values of Properties of Hydrocarbons and Related Compounds. Texas A & M University; College Station; TX; 1973.,2,-168.5,-168,0.5
1201,"2,3,4-trimethoxybenzoic acid",COc1ccc(c(c1OC)OC)C(=O)O,101,10833,http://www.alfa.com/en/GP100W.pgm?DSSTK=A14278,Alfa Aesar,2,100.5,101,0.5
6286,9-bromophenanthrene,c1ccc2c(c1)cc(c3c2cccc3)Br,64,10834,http://www.alfa.com/en/GP100W.pgm?DSSTK=L09033,Alfa Aesar,2,64,64.5,0.5
7755,N-(2-bromoethyl)phthalimide,c1ccc2c(c1)C(=O)N(C2=O)CCBr,82,10848,http://www.alfa.com/en/GP100W.pgm?DSSTK=A12164,Alfa Aesar,2,82,82.5,0.5
3977,3-hexanone,CCCC(=O)CC,-55,11025,http://www.alfa.com/en/GP100W.pgm?DSSTK=B20791,Alfa Aesar,2,-55.5,-55,0.5
8460,tert-butyl isothiocyanate,CC(C)(C)N=C=S,10,11057,http://www.alfa.com/en/GP100W.pgm?DSSTK=L02668,Alfa Aesar,2,10,10.5,0.5
13281,4-methylcyclohexene,CC1CC=CCC1,-115,11084,http://www.amazon.com/dp/B002IYRJWI,American Petroleum Institute. Research Project 44; Selected Values of Properties of Hydrocarbons and Related Compounds. Texas A & M University; College Station; TX; 1973.,2,-115.5,-115,0.5
8016,N-butyl formate,CCCCOC=O,-92,11125,http://www.alfa.com/en/GP100W.pgm?DSSTK=A13882,Alfa Aesar,2,-92,-91.5,0.5
8059,N-heptacosane,CCCCCCCCCCCCCCCCCCCCCCCCCCC,59,11146,http://www.alfa.com/en/GP100W.pgm?DSSTK=L07796,Alfa Aesar,2,59,59.5,0.5
3895,3-ethyl-3-pentanol,CCC(CC)(CC)O,-13,11210,http://www.alfa.com/en/GP100W.pgm?DSSTK=L03025,Alfa Aesar,2,-13,-12.5,0.5
7707,methyl trichloroacetate,COC(=O)C(Cl)(Cl)Cl,-18,11246,http://www.alfa.com/en/GP100W.pgm?DSSTK=A15320,Alfa Aesar,2,-18,-17.5,0.5
15524,"5-Nitro-1,2-dihydroacenaphthylene",[O-][N+](=O)c1ccc2CCc3cccc1c23,103.5,11276,http://msds.chem.ox.ac.uk/,academic website,2,103,103.5,0.5
14300,o-nitrophenyl_acetate,O=C(C)Oc1ccccc1[N+]([O-])=O,40,11397,http://www.amazon.com/dp/B003XEQTLE,Aldrich Chemical Company; Aldrich Catalog-Handbook of Fine Chemicals; Milwaukee; WI; 1984.,2,40,40.5,0.5
7062,ethyl 2-furoate,CCOC(=O)c1ccco1,34,11485,http://www.alfa.com/en/GP100W.pgm?DSSTK=A13909,Alfa Aesar,2,34,34.5,0.5
6674,citraconic anhydride,CC1=CC(=O)OC1=O,8,11517,http://www.alfa.com/en/GP100W.pgm?DSSTK=L05238,Alfa Aesar,2,7.5,8,0.5
7893,N-acetyl-l-cysteine,CC(=O)N[C@@H](CS)C(=O)O,110,11540,http://www.alfa.com/en/GP100W.pgm?DSSTK=A15409,Alfa Aesar,2,109.5,110,0.5
5076,4-ethylbenzoic acid,CCc1ccc(cc1)C(=O)O,113,11589,http://www.alfa.com/en/GP100W.pgm?DSSTK=A10235,Alfa Aesar,2,112.5,113,0.5
15404,4-(Dimethylamino)benzoic acid,CN(C)c1ccc(cc1)C(=O)O,243,11595,http://msds.chem.ox.ac.uk/,academic website,2,242.5,243,0.5
557,"1,3-diphenoxy-2-propanol",c1ccc(cc1)OCC(COc2ccccc2)O,82,11641,http://www.alfa.com/en/GP100W.pgm?DSSTK=B20503,Alfa Aesar,2,81.5,82,0.5
8336,p-tolyl isothiocyanate,Cc1ccc(cc1)N=C=S,25,11650,http://www.alfa.com/en/GP100W.pgm?DSSTK=A11499,Alfa Aesar,2,25,25.5,0.5
5068,4-ethoxyphenol,CCOc1ccc(cc1)O,66,11651,http://www.alfa.com/en/GP100W.pgm?DSSTK=B20584,Alfa Aesar,2,66,66.5,0.5
13241,methyl_butyl_ether,CCCCOC,-115,11833,http://www.amazon.com/dp/B002IYRJWI,American Petroleum Institute. Research Project 44; Selected Values of Properties of Hydrocarbons and Related Compounds. Texas A & M University; College Station; TX; 1973.,2,-115.5,-115,0.5
13240,ethyl_propyl_ether,CCOCCC,-127,11835,http://www.amazon.com/dp/B002IYRJWI,American Petroleum Institute. Research Project 44; Selected Values of Properties of Hydrocarbons and Related Compounds. Texas A & M University; College Station; TX; 1973.,2,-127.5,-127,0.5
13715,1-chloroheptane,CCCCCCCCl,-70,11865,http://www.questia.com/library/book/physical_properties_of_chemical_compounds_by_robert_rickert_dreisbach.jsp,Dreisbach R. R. Physical Properties of Chemical Compounds; Vol. III; American Chemical Society; Washington; 1961.,2,-70,-69.5,0.5
8067,N-hexatriacontane,CCCCCCCCCCCCCCCCCCCCCCCCCCCCCCCCCCCC,76,11906,http://www.alfa.com/en/GP100W.pgm?DSSTK=31641,Alfa Aesar,2,76,76.5,0.5
8483,tetraethylsilane,CC[Si](CC)(CC)CC,-82,11919,http://www.alfa.com/en/GP100W.pgm?DSSTK=L03328,Alfa Aesar,2,-82.5,-82,0.5
14420,catechol diacetate,O=C(C)Oc1ccccc1OC(C)=O,64,11969,http://de.wikipedia.org/wiki/Beilsteins_Handbuch_der_Organischen_Chemie,Beilstein F. K.; Beilsteins Handbuch der Organischen Chemie. Springer; Berlin; 1972.,2,64,64.5,0.5
1225,"2,3,5-trimethylphenol",Cc1cc(c(c(c1)O)C)C,94,12244,http://www.alfa.com/en/GP100W.pgm?DSSTK=A10745,Alfa Aesar,2,93.5,94,0.5
6003,5-nitro-2-furaldehyde,c1cc(oc1C=O)[N+](=O)[O-],36,12249,http://www.alfa.com/en/GP100W.pgm?DSSTK=A10618,Alfa Aesar,2,35.5,36,0.5
13917,pentamethylbenzene,Cc1cc(C)c(C)c(C)c1C,54,12259,http://www.amazon.com/dp/B002IYRJWI,American Petroleum Institute. Research Project 44; Selected Values of Properties of Hydrocarbons and Related Compounds. Texas A & M University; College Station; TX; 1973.,2,54,54.5,0.5
12921,"9,10-dihydrophenanthrene",c1ccc2c(c1)CCc1ccccc12,34,12515,http://dx.doi.org/10.1021/ci0500132,Karthikeyan M.; Glen R.C.; Bender A. General melting point prediction based on a diverse compound dataset and artificial neural networks. J. Chem. Inf. Model.; 2005; 45(3); 581-4503,2,34,34.5,0.5
8680,triphenylphosphine oxide,c1ccc(cc1)P(=O)(c2ccccc2)c3ccccc3,156,12549,http://www.alfa.com/en/GP100W.pgm?DSSTK=A12455,Alfa Aesar,2,156,156.5,0.5
6336,adamantane-1-carboxylic acid,C1C2CC3CC1CC(C2)(C3)C(=O)O,175,12680,http://www.alfa.com/en/GP100W.pgm?DSSTK=A12959,Alfa Aesar,2,174.5,175,0.5
100,1-naphthyl acetate,CC(=O)Oc1cccc2c1cccc2,45,12691,http://www.alfa.com/en/GP100W.pgm?DSSTK=A17482,Alfa Aesar,2,44.5,45,0.5
14183,6-undecanone,CCCCCC(=O)CCCCC,15,12972,http://www.amazon.com/dp/B003XEQTLE,Aldrich Chemical Company; Aldrich Catalog-Handbook of Fine Chemicals; Milwaukee; WI; 1984.,2,14.5,15,0.5
13726,"1,2-dimethyl-3-ethylbenzene",CCc1cccc(C)c1C,-50,13032,http://www.amazon.com/dp/B002IYRJWI,American Petroleum Institute. Research Project 44; Selected Values of Properties of Hydrocarbons and Related Compounds. Texas A & M University; College Station; TX; 1973.,2,-50,-49.5,0.5
2734,2-hydroxybenzhydrazide,c1ccc(c(c1)C(=O)NN)O,148,13048,http://www.alfa.com/en/GP100W.pgm?DSSTK=A14218,Alfa Aesar,2,148,148.5,0.5
3019,2-phenoxypropionic acid,CC(C(=O)O)Oc1ccccc1,118,13069,http://www.alfa.com/en/GP100W.pgm?DSSTK=L04687,Alfa Aesar,2,117.5,118,0.5
3033,2-phenylindole,c1ccc(cc1)c2cc3ccccc3[nH]2,190,13105,http://www.alfa.com/en/GP100W.pgm?DSSTK=B23674,Alfa Aesar,2,190,190.5,0.5
3218,"3,3-dimethylbutyric acid",CC(C)(C)CC(=O)O,6,13438,http://www.alfa.com/en/GP100W.pgm?DSSTK=B21660,Alfa Aesar,2,6,6.5,0.5
13635,"2,2,4,4-tetramethylpentane",CC(C)(C)CC(C)(C)C,-67,13439,http://www.amazon.com/dp/B002IYRJWI,American Petroleum Institute. Research Project 44; Selected Values of Properties of Hydrocarbons and Related Compounds. Texas A & M University; College Station; TX; 1973.,2,-67,-66.5,0.5
4600,4-aminobenzophenone,c1ccc(cc1)C(=O)c2ccc(cc2)N,123,13707,http://www.alfa.com/en/GP100W.pgm?DSSTK=A13757,Alfa Aesar,2,122.5,123,0.5
8036,N-dodecyl gallate,CCCCCCCCCCCCOC(=O)c1cc(c(c(c1)O)O)O,97,13777,http://www.alfa.com/en/GP100W.pgm?DSSTK=L06233,Alfa Aesar,2,96.5,97,0.5
6787,dibenzosuberyl chloride,c1ccc2c(c1)CCc3ccccc3C2Cl,107,13925,http://www.alfa.com/en/GP100W.pgm?DSSTK=L05355,Alfa Aesar,2,106.5,107,0.5
3533,"3,5-di-tert-butyl-4-hydroxybenzoic acid",CC(C)(C)c1cc(cc(c1O)C(C)(C)C)C(=O)O,208,14285,http://www.alfa.com/en/GP100W.pgm?DSSTK=A16880,Alfa Aesar,2,207.5,208,0.5
13258,methyl_isopropyl_sulfide,CC(C)SC,-102,14512,http://www.amazon.com/dp/B002IYRJWI,American Petroleum Institute. Research Project 44; Selected Values of Properties of Hydrocarbons and Related Compounds. Texas A & M University; College Station; TX; 1973.,2,-102,-101.5,0.5
2006,2-amino-5-methylpyridine,Cc1ccc(nc1)N,76,14609,http://www.alfa.com/en/GP100W.pgm?DSSTK=A13330,Alfa Aesar,2,76,76.5,0.5
6806,dichlorodiethylsilane,CC[Si](CC)(Cl)Cl,-97,14830,http://www.alfa.com/en/GP100W.pgm?DSSTK=L03239,Alfa Aesar,2,-97,-96.5,0.5
1470,"2,4-dichlorobenzyl alcohol",c1cc(c(cc1Cl)Cl)CO,59,14918,http://www.alfa.com/en/GP100W.pgm?DSSTK=A13338,Alfa Aesar,2,59,59.5,0.5
2711,2-hydroxy-4-n-octyloxybenzophenone,CCCCCCCCOc1ccc(c(c1)O)C(=O)c2ccccc2,48,15020,http://www.alfa.com/en/GP100W.pgm?DSSTK=L11750,Alfa Aesar,2,48,48.5,0.5
6285,9-bromofluorene,c1ccc2c(c1)-c3ccccc3C2Br,103,15216,http://www.alfa.com/en/GP100W.pgm?DSSTK=A10428,Alfa Aesar,2,103,103.5,0.5
2786,2-isopropylnaphthalene,CC(C)c1ccc2ccccc2c1,14,15410,http://www.alfa.com/en/GP100W.pgm?DSSTK=A15153,Alfa Aesar,2,14,14.5,0.5
2240,2-bromostyrene,C=Cc1ccccc1Br,-53,15432,http://www.alfa.com/en/GP100W.pgm?DSSTK=B24181,Alfa Aesar,2,-53,-52.5,0.5
27958,cyclohexanecarbaldehyde,O=CC1CCCCC1,34.5,15443,http://www.alfa.com/content/msds/USA/B23837.pdf,Alfa Aesar,2,34.5,35,0.5
38,1-methylisatin,CN1c2ccccc2C(=O)C1=O,131,15517,http://www.alfa.com/en/GP100W.pgm?DSSTK=A12942,Alfa Aesar,2,131,131.5,0.5
3716,3'-bromoacetophenone,CC(=O)c1cccc(c1)Br,8,15644,http://www.alfa.com/en/GP100W.pgm?DSSTK=A12454,Alfa Aesar,2,7.5,8,0.5
17301,fluometuron,O=C(Nc1cc(ccc1)C(F)(F)F)N(C)C,163.5,15702,http://dx.doi.org/10.1021/ci700307p,Hughes LD; Palmer DS; Nigsch F and Mitchell JBO. 2008 Why are some properties more difficult to predict than others? A study of QSPR models of solubility; melting point and LogP. J. Chem. Inf. Model. 2008. 48 (1). pp 220?448,2,163.5,164,0.5
8223,pentachloropyridine,c1(c(c(nc(c1Cl)Cl)Cl)Cl)Cl,125,15724,http://www.alfa.com/en/GP100W.pgm?DSSTK=A13842,Alfa Aesar,2,125,125.5,0.5
1206,"2,3,5,6-tetrachloropyridine",c1c(c(nc(c1Cl)Cl)Cl)Cl,91,16096,http://www.alfa.com/en/GP100W.pgm?DSSTK=L19458,Alfa Aesar,2,90.5,91,0.5
3060,2-tert-butyl-4-methylphenol,Cc1ccc(c(c1)C(C)(C)C)O,52,16109,http://www.alfa.com/en/GP100W.pgm?DSSTK=B23545,Alfa Aesar,2,51.5,52,0.5
14778,(2-Chlorobenzylidene)malononitrile,Clc1ccccc1/C=C(C#N)C#N,95,16644,http://msds.chem.ox.ac.uk/,academic website,2,95,95.5,0.5
7472,"methyl 2,5-dichlorobenzoate",COC(=O)c1cc(ccc1Cl)Cl,39,16951,http://www.alfa.com/en/GP100W.pgm?DSSTK=B22489,Alfa Aesar,2,38.5,39,0.5
3276,"3,4-dibromothiophene",c1c(c(cs1)Br)Br,5,17428,http://www.alfa.com/en/GP100W.pgm?DSSTK=A10512,Alfa Aesar,2,4.5,5,0.5
1613,"2,5-dichlorothiophene",c1cc(sc1Cl)Cl,-41,17474,http://www.alfa.com/en/GP100W.pgm?DSSTK=A13839,Alfa Aesar,2,-41,-40.5,0.5
14700,1-eicosene,C=CCCCCCCCCCCCCCCCCCC,29,17879,http://www.amazon.com/dp/B002IYRJWI,American Petroleum Institute. Research Project 44; Selected Values of Properties of Hydrocarbons and Related Compounds. Texas A & M University; College Station; TX; 1973.,2,28.5,29,0.5
13292,4-methyl-1-hexene,CC(CC)CC=C,-141,18453,http://www.amazon.com/dp/B002IYRJWI,American Petroleum Institute. Research Project 44; Selected Values of Properties of Hydrocarbons and Related Compounds. Texas A & M University; College Station; TX; 1973.,2,-141.5,-141,0.5
7212,ethyl trimethylacetate,CCOC(=O)C(C)(C)C,-90,18688,http://www.alfa.com/en/GP100W.pgm?DSSTK=A13100,Alfa Aesar,2,-90,-89.5,0.5
13306,3-ethyl-1-pentene,C=CC(CC)CC,-127,18792,http://www.amazon.com/dp/B002IYRJWI,American Petroleum Institute. Research Project 44; Selected Values of Properties of Hydrocarbons and Related Compounds. Texas A & M University; College Station; TX; 1973.,2,-127.5,-127,0.5
14632,1-heptadecene,CCCCCCCCCCCCCCCC=C,11,21723,http://www.amazon.com/dp/B002IYRJWI,American Petroleum Institute. Research Project 44; Selected Values of Properties of Hydrocarbons and Related Compounds. Texas A & M University; College Station; TX; 1973.,2,11,11.5,0.5
8508,tetratetracontane,CCCCCCCCCCCCCCCCCCCCCCCCCCCCCCCCCCCCCCCCCCCC,88,21965,http://www.alfa.com/en/GP100W.pgm?DSSTK=A15449,Alfa Aesar,2,87.5,88,0.5
4909,4-chloro-3-methylaniline,Cc1cc(ccc1Cl)N,84,22006,http://www.alfa.com/en/GP100W.pgm?DSSTK=B22234,Alfa Aesar,2,83.5,84,0.5
8613,trichlorosilane,[SiH](Cl)(Cl)Cl,-127,23196,http://www.alfa.com/en/GP100W.pgm?DSSTK=14078,Alfa Aesar,2,-127,-126.5,0.5
15794,Ethyl 4-(dimethylamino)benzoate,CN(C)c1ccc(cc1)C(=O)OCC,63.5,23472,http://msds.chem.ox.ac.uk/,academic website,2,63.5,64,0.5
137,1-methyl-1h-benzotriazole,Cn1c2ccccc2nn1,65,24133,http://www.alfa.com/en/GP100W.pgm?DSSTK=L00297,Alfa Aesar,2,64.5,65,0.5
7365,isonicotinic acid n-oxide,c1c[n+](ccc1C(=O)O)[O-],270,24341,http://www.alfa.com/en/GP100W.pgm?DSSTK=L02425,Alfa Aesar,2,270,270.5,0.5
8859,metopimazine,CS(=O)(=O)c4ccc3Sc1ccccc1N(CCCN2CCC(CC2)C(N)=O)c3c4,170,24584,http://dx.doi.org/10.1021/ci020280x,Bergstrom C. A. S.; Norinder U.; Luthman K.; Artursson P. Molecular Descriptors Influencing Melting Point and Their Role in Classification of Solid Drugs. J. Chem. Inf. Comput. Sci.; (Article); 2003; 43(4); 1177-1305,2,170,170.5,0.5
1611,"2,5-dichloropyridine",c1cc(ncc1Cl)Cl,61,25757,http://www.alfa.com/en/GP100W.pgm?DSSTK=A15442,Alfa Aesar,2,60.5,61,0.5
4869,4-chloro-2-methoxyphenol,COc1cc(ccc1O)Cl,17,26091,http://www.alfa.com/en/GP100W.pgm?DSSTK=A14806,Alfa Aesar,2,16.5,17,0.5
13913,"1,2,4-trimethyl-5-ethylbenzene",Cc1cc(C)c(C)cc1CC,-14,26801,http://www.amazon.com/dp/B002IYRJWI,American Petroleum Institute. Research Project 44; Selected Values of Properties of Hydrocarbons and Related Compounds. Texas A & M University; College Station; TX; 1973.,2,-14,-13.5,0.5
28103,Fentiazac,C1=CC=C(C=C1)C2=NC(=C(S2)CC(=O)O)C3=CC=C(C=C3)Cl,161,26854,http://dx.doi.org/10.1016/j.chemosphere.2013.10.095,Abraham M.H. and Acree Jr. W.E. The solubility of liquid and solid compounds in dry octan-1-ol. Chemosphere (2013),2,161,161.5,0.5
4257,4-(4-hydroxy-3-methoxyphenyl)-2-butanone,CC(=O)CCc1ccc(c(c1)OC)O,41,28952,http://www.alfa.com/en/GP100W.pgm?DSSTK=B25150,Alfa Aesar,2,40.5,41,0.5
7271,glycidyl phenyl ether,c1ccc(cc1)OCC2CO2,4,28958,http://www.alfa.com/en/GP100W.pgm?DSSTK=B21768,Alfa Aesar,2,3.5,4,0.5
14137,4-butoxyphenol,Oc1ccc(OCCCC)cc1,65,28973,http://www.amazon.com/dp/B003XEQTLE,Aldrich Chemical Company; Aldrich Catalog-Handbook of Fine Chemicals; Milwaukee; WI; 1984.,2,65,65.5,0.5
15508,"5,5-Dimethylcyclohexane-1,3-dione",O=C1CC(=O)CC(C)(C)C1,148.5,29091,http://msds.chem.ox.ac.uk/,academic website,2,148,148.5,0.5
6965,diphenyl sulfone,c1ccc(cc1)S(=O)(=O)c2ccccc2,128,29117,http://www.alfa.com/en/GP100W.pgm?DSSTK=L08232,Alfa Aesar,2,128,128.5,0.5
14724,"1,2,2,3-tetrabromopropane",BrC(Br)(CBr)CBr,11,37466,http://www.questia.com/library/book/physical_properties_of_chemical_compounds_by_robert_rickert_dreisbach.jsp,Dreisbach R. R. Physical Properties of Chemical Compounds; Vol. III; American Chemical Society; Washington; 1961.,2,10.5,11,0.5
28527,Simvastatin,CCC(C)(C)C(=O)O[C@H]1C[C@H](C=C2[C@H]1[C@H]([C@H](C=C2)C)CC[C@@H]3C[C@H](CC(=O)O3)O)C,136,49179,http://dx.doi.org/10.1016/j.chemosphere.2013.10.095,Abraham M.H. and Acree Jr. W.E. The solubility of liquid and solid compounds in dry octan-1-ol. Chemosphere (2013),2,136,136.5,0.5
15098,"2-(4-Isopropyl-4-methyl-5-oxo-4,5-dihydro-1H-imidazol-2-yl)nicotinic acid",CC1(N=C(NC1=O)c2ncccc2C(=O)O)C(C)C,171.5,49445,http://msds.chem.ox.ac.uk/,academic website,2,171,171.5,0.5
5532,4-pentenoic acid,C=CCCC(=O)O,-22,55085,http://www.alfa.com/en/GP100W.pgm?DSSTK=A13991,Alfa Aesar,2,-22.5,-22,0.5
3007,2-pentadecanone,CCCCCCCCCCCCCC(=O)C,39,55242,http://www.alfa.com/en/GP100W.pgm?DSSTK=L09347,Alfa Aesar,2,39,39.5,0.5
13543,p-vinylphenol,C=Cc1ccc(O)cc1,73,56234,http://de.wikipedia.org/wiki/Beilsteins_Handbuch_der_Organischen_Chemie,Beilstein F. K.; Beilsteins Handbuch der Organischen Chemie. Springer; Berlin; 1972.,2,73,73.5,0.5
14788,(2E)-But-2-ene,CC=CC,-105,56442,http://msds.chem.ox.ac.uk/,academic website,2,-105.5,-105,0.5
5250,4-hydroxyquinazoline,c1ccc2c(c1)c(=O)[nH]cn2,218,56797,http://www.alfa.com/en/GP100W.pgm?DSSTK=A17129,Alfa Aesar,2,217.5,218,0.5
382,1-acetamidoadamantane,CC(=O)NC12CC3CC(C1)CC(C3)C2,148,57727,http://www.alfa.com/en/GP100W.pgm?DSSTK=A17224,Alfa Aesar,2,148,148.5,0.5
6743,dansyl amide,CN(C)c1cccc2c1cccc2S(=O)(=O)N,220,58587,http://www.alfa.com/en/GP100W.pgm?DSSTK=A11449,Alfa Aesar,2,219.5,220,0.5