key,name,smiles,mpC,csid,link,source,count,min,max,range
4274,4-(aminomethyl)piperidine,C1CNCCC1CN,24,21997,http://www.alfa.com/en/GP100W.pgm?DSSTK=L11577,Alfa Aesar,2,24,25,1
2211,2-bromobenzoyl chloride,c1ccc(c(c1)C(=O)Cl)Br,10,22012,http://www.alfa.com/en/GP100W.pgm?DSSTK=A14520,Alfa Aesar,2,10,11,1
15124,"2,2-Dibromo-2-cyanoacetamide",BrC(Br)(C#N)C(N)=O,123.5,23422,http://msds.chem.ox.ac.uk/,academic website,2,123.5,124.5,1
6608,camphorquinone,CC1(C2CCC1(C(=O)C2=O)C)C,200,23544,http://www.alfa.com/en/GP100W.pgm?DSSTK=A14967,Alfa Aesar,2,199,200,1
14464,tridecanal,CCCCCCCCCCCCC=O,15,23643,http://www.amazon.com/dp/B002IYRJWI,American Petroleum Institute. Research Project 44; Selected Values of Properties of Hydrocarbons and Related Compounds. Texas A & M University; College Station; TX; 1973.,2,14,15,1
6782,dibenzo-18-crown-6,c1ccc2c(c1)OCCOCCOc3ccccc3OCCOCCO2,162,24722,http://www.alfa.com/en/GP100W.pgm?DSSTK=A13133,Alfa Aesar,2,162,163,1
5526,4-n-pentylphenol,CCCCCc1ccc(cc1)O,24,25119,http://www.alfa.com/en/GP100W.pgm?DSSTK=A11514,Alfa Aesar,2,23,24,1
1747,"2,6-dichlorobenzyl alcohol",c1cc(c(c(c1)Cl)CO)Cl,97,25276,http://www.alfa.com/en/GP100W.pgm?DSSTK=A12196,Alfa Aesar,2,97,98,1
7335,indole-5-carbonitrile,c1cc2c(cc[nH]2)cc1C#N,106,25604,http://www.alfa.com/en/GP100W.pgm?DSSTK=B21810,Alfa Aesar,2,106,107,1
8994,thenaldine,CN1CCC(CC1)N(Cc2cccs2)c3ccccc3,95,25957,http://dx.doi.org/10.1021/ci020280x,Bergstrom C. A. S.; Norinder U.; Luthman K.; Artursson P. Molecular Descriptors Influencing Melting Point and Their Role in Classification of Solid Drugs. J. Chem. Inf. Comput. Sci.; (Article); 2003; 43(4); 1177-1440,2,95,96,1
7705,methyl tetradecanoate,CCCCCCCCCCCCCC(=O)OC,18,29024,http://www.alfa.com/en/GP100W.pgm?DSSTK=A10257,Alfa Aesar,2,18,19,1
1365,"2,4,6-tribromotoluene",Cc1c(cc(cc1Br)Br)Br,69,31264,http://www.alfa.com/en/GP100W.pgm?DSSTK=L01149,Alfa Aesar,2,69,70,1
14426,m-bromophenylacetonitrile,Brc1cc(CC#N)ccc1,28,33137,http://www.amazon.com/dp/B003XEQTLE,Aldrich Chemical Company; Aldrich Catalog-Handbook of Fine Chemicals; Milwaukee; WI; 1984.,2,27,28,1
8998,torsemide,CC(C)NC(=O)NS(=O)(=O)c1cnccc1Nc2cccc(C)c2,163,38123,http://dx.doi.org/10.1021/ci020280x,Bergstrom C. A. S.; Norinder U.; Luthman K.; Artursson P. Molecular Descriptors Influencing Melting Point and Their Role in Classification of Solid Drugs. J. Chem. Inf. Comput. Sci.; (Article); 2003; 43(4); 1177-1444,2,163,164,1
4365,4'-(trifluoromethyl)biphenyl-2-carboxylic acid,c1ccc(c(c1)c2ccc(cc2)C(F)(F)F)C(=O)O,169,49895,http://www.alfa.com/en/GP100W.pgm?DSSTK=B25099,Alfa Aesar,2,169,170,1
875,(phenylthio)acetic acid,c1ccc(cc1)SCC(=O)O,64,53706,http://www.alfa.com/en/GP100W.pgm?DSSTK=B22280,Alfa Aesar,2,64,65,1
2806,2-mercaptopropionic acid,CC(C(=O)O)S,11,56121,http://www.alfa.com/en/GP100W.pgm?DSSTK=L10257,Alfa Aesar,2,11,12,1
539,"1,4,8,11-tetraazacyclotetradecane",C1CNCCNCCCNCCNC1,186,58489,http://www.alfa.com/en/GP100W.pgm?DSSTK=A11516,Alfa Aesar,2,185,186,1
1327,"2,3-diphenyl-2-cyclopropen-1-one",c1ccc(cc1)c2c(c2=O)c3ccccc3,120,58568,http://www.alfa.com/en/GP100W.pgm?DSSTK=B21954,Alfa Aesar,2,119,120,1
6419,benzenesulfonyl hydrazide,c1ccc(cc1)S(=O)(=O)NN,103,59146,http://www.alfa.com/en/GP100W.pgm?DSSTK=B23971,Alfa Aesar,2,102,103,1
6975,diphenylcarbamyl chloride,c1ccc(cc1)N(c2ccccc2)C(=O)Cl,84,59164,http://www.alfa.com/en/GP100W.pgm?DSSTK=B23116,Alfa Aesar,2,83,84,1
5497,4-nitrophenyl isocyanate,c1cc(ccc1N=C=O)[N+](=O)[O-],58,59403,http://www.alfa.com/en/GP100W.pgm?DSSTK=A11194,Alfa Aesar,2,57,58,1
5187,4-hydroxy-1-methylpiperidine,CN1CCC(CC1)O,28,59438,http://www.alfa.com/en/GP100W.pgm?DSSTK=L06415,Alfa Aesar,2,28,29,1
14563,m-chlorobenzophenone,O=C(c1cc(Cl)ccc1)c2ccccc2,82,59487,http://www.amazon.com/dp/B003XEQTLE,Aldrich Chemical Company; Aldrich Catalog-Handbook of Fine Chemicals; Milwaukee; WI; 1984.,2,82,83,1
1584,"2,5-dibromo-p-xylene",Cc1cc(c(cc1Br)C)Br,73,59562,http://www.alfa.com/en/GP100W.pgm?DSSTK=L01776,Alfa Aesar,2,73,74,1
8210,o-xylylene dibromide,c1ccc(c(c1)CBr)CBr,94,60032,http://www.alfa.com/en/GP100W.pgm?DSSTK=A17241,Alfa Aesar,2,94,95,1
7835,"N,N-dibenzylaniline",c1ccc(cc1)CN(Cc2ccccc2)c3ccccc3,70,60047,http://www.alfa.com/en/GP100W.pgm?DSSTK=H32091,Alfa Aesar,2,69,70,1
14044,5-chloro-o-anisidine,COc1ccc(Cl)cc1N,83,60129,http://www.amazon.com/dp/B003XEQTLE,Aldrich Chemical Company; Aldrich Catalog-Handbook of Fine Chemicals; Milwaukee; WI; 1984.,2,82,83,1
14409,4-chlorobenzenesulfonamide,O=S(N)(=O)c1ccc(Cl)cc1,145,60188,http://www.amazon.com/dp/B003XEQTLE,Aldrich Chemical Company; Aldrich Catalog-Handbook of Fine Chemicals; Milwaukee; WI; 1984.,2,145,146,1
884,(benzylthio)acetic acid,c1ccc(cc1)CSCC(=O)O,62,60259,http://www.alfa.com/en/GP100W.pgm?DSSTK=A18698,Alfa Aesar,2,61,62,1
7028,ethoxymethylenemalononitrile,CCOC=C(C#N)C#N,65,60497,http://www.alfa.com/en/GP100W.pgm?DSSTK=A14412,Alfa Aesar,2,65,66,1
6320,acetone oxime,CC(=NO)C,62,60524,http://www.alfa.com/en/GP100W.pgm?DSSTK=A10802,Alfa Aesar,2,61,62,1
444,"1,5-difluoro-2,4-dinitrobenzene",c1c(c(cc(c1[N+](=O)[O-])F)F)[N+](=O)[O-],74,60919,http://www.alfa.com/en/GP100W.pgm?DSSTK=B21615,Alfa Aesar,2,73,74,1
4343,4-(trifluoromethoxy)benzoic acid,c1cc(ccc1C(=O)O)OC(F)(F)F,153,60933,http://www.alfa.com/en/GP100W.pgm?DSSTK=A13621,Alfa Aesar,2,152,153,1
3190,3-(trifluoromethyl)phenylacetic acid,c1cc(cc(c1)C(F)(F)F)CC(=O)O,78,61014,http://www.alfa.com/en/GP100W.pgm?DSSTK=L10960,Alfa Aesar,2,77,78,1
5156,4-fluorobenzoyl chloride,c1cc(ccc1C(=O)Cl)F,10,61196,http://www.alfa.com/en/GP100W.pgm?DSSTK=A12946,Alfa Aesar,2,9,10,1
5112,4-fluoro-2-nitrotoluene,Cc1ccc(cc1[N+](=O)[O-])F,26,61280,http://www.alfa.com/en/GP100W.pgm?DSSTK=B24677,Alfa Aesar,2,26,27,1
1178,"2,3,4,5,6-pentamethylbenzyl chloride",Cc1c(c(c(c(c1C)C)CCl)C)C,83,61399,http://www.alfa.com/en/GP100W.pgm?DSSTK=L00555,Alfa Aesar,2,82,83,1
1118,"2,2'-bithiophene",c1cc(sc1)c2cccs2,32,61428,http://www.alfa.com/en/GP100W.pgm?DSSTK=A12335,Alfa Aesar,2,32,33,1
13554,2-aminobenzaldehyde,O=Cc1ccccc1N,38,61553,http://www.amazon.com/dp/B003XEQTLE,Aldrich Chemical Company; Aldrich Catalog-Handbook of Fine Chemicals; Milwaukee; WI; 1984.,2,38,39,1
745,"1,1'-carbonyldiimidazole",c1cn(cn1)C(=O)n2ccnc2,118,61561,http://www.alfa.com/en/GP100W.pgm?DSSTK=A14688,Alfa Aesar,2,118,119,1
7878,"N,N'-diphenylbenzidine",c1ccc(cc1)Nc2ccc(cc2)c3ccc(cc3)Nc4ccccc4,248,61577,http://www.alfa.com/en/GP100W.pgm?DSSTK=A13802,Alfa Aesar,2,247,248,1
6060,6-aminobenzothiazole,c1cc2c(cc1N)scn2,88,61585,http://www.alfa.com/en/GP100W.pgm?DSSTK=A12601,Alfa Aesar,2,87,88,1
4803,4-bromobenzyl bromide,c1cc(ccc1CBr)Br,62,61802,http://www.alfa.com/en/GP100W.pgm?DSSTK=A10892,Alfa Aesar,2,62,63,1
2253,2-butynoic acid,CC#CC(=O)O,77,61810,http://www.alfa.com/en/GP100W.pgm?DSSTK=A15542,Alfa Aesar,2,77,78,1
8179,o-cresolphthalein,Cc1cc(ccc1O)C2(c3ccccc3C(=O)O2)c4ccc(c(c4)C)O,224,62217,http://www.alfa.com/en/GP100W.pgm?DSSTK=A12899,Alfa Aesar,2,223,224,1
6933,di-n-butyl sulfone,CCCCS(=O)(=O)CCCC,44,62236,http://www.alfa.com/en/GP100W.pgm?DSSTK=B22035,Alfa Aesar,2,44,45,1
5196,4-hydroxy-2-methylquinoline,Cc1cc(c2ccccc2n1)O,235,62307,http://www.alfa.com/en/GP100W.pgm?DSSTK=A14587,Alfa Aesar,2,234,235,1
5506,4-nitrophthalic acid,c1cc(c(cc1[N+](=O)[O-])C(=O)O)C(=O)O,163,62338,http://www.alfa.com/en/GP100W.pgm?DSSTK=A10368,Alfa Aesar,2,162,163,1
4626,4-benzylbiphenyl,c1ccc(cc1)Cc2ccc(cc2)c3ccccc3,86,62389,http://www.alfa.com/en/GP100W.pgm?DSSTK=A15392,Alfa Aesar,2,85,86,1
3834,3-chlorobenzamide,c1cc(cc(c1)Cl)C(=O)N,135,62467,http://www.alfa.com/en/GP100W.pgm?DSSTK=A11389,Alfa Aesar,2,135,136,1
2142,2-bromo-4'-methylacetophenone,Cc1ccc(cc1)C(=O)CBr,52,62483,http://www.alfa.com/en/GP100W.pgm?DSSTK=B25217,Alfa Aesar,2,51,52,1
6801,dibenzyl sulfone,c1ccc(cc1)CS(=O)(=O)Cc2ccccc2,151,62493,http://www.alfa.com/en/GP100W.pgm?DSSTK=L04108,Alfa Aesar,2,151,152,1
501,"1,4-dibenzyloxybenzene",c1ccc(cc1)COc2ccc(cc2)OCc3ccccc3,127,62525,http://www.alfa.com/en/GP100W.pgm?DSSTK=B24942,Alfa Aesar,2,127,128,1
8257,phenyl carbamate,c1ccc(cc1)OC(=O)N,151,62532,http://www.alfa.com/en/GP100W.pgm?DSSTK=L00944,Alfa Aesar,2,150,151,1
507,"1,4-diacetoxybutane",CC(=O)OCCCCOC(=O)C,13,62618,http://www.alfa.com/en/GP100W.pgm?DSSTK=A16978,Alfa Aesar,2,12,13,1
8503,tetraphenylethylene,c1ccc(cc1)C(=C(c2ccccc2)c3ccccc3)c4ccccc4,224,62645,http://www.alfa.com/en/GP100W.pgm?DSSTK=L00222,Alfa Aesar,2,224,225,1
28453,phenylpropynoic acid,O=C(C#Cc1ccccc1)O,136,62682,http://www.alfa.com/content/msds/USA/A15163.pdf,Alfa Aesar,2,136,137,1
1165,"2,3,4,5,6-pentafluorobenzamide",c1(c(c(c(c(c1F)F)F)F)F)C(=O)N,148,62751,http://www.alfa.com/en/GP100W.pgm?DSSTK=A18397,Alfa Aesar,2,147,148,1
6774,di-2-thienyl ketone,c1cc(sc1)C(=O)c2cccs2,89,62914,http://www.alfa.com/en/GP100W.pgm?DSSTK=A12062,Alfa Aesar,2,89,90,1
4350,4'-(trifluoromethyl)acetophenone,CC(=O)c1ccc(cc1)C(F)(F)F,32,62931,http://www.alfa.com/en/GP100W.pgm?DSSTK=A15529,Alfa Aesar,2,31,32,1
1067,2-(trifluoromethyl)benzophenone,c1ccc(cc1)C(=O)c2ccccc2C(F)(F)F,60,62963,http://www.alfa.com/en/GP100W.pgm?DSSTK=B20221,Alfa Aesar,2,60,61,1
2846,2-methoxyhydroquinone,COc1cc(ccc1O)O,89,63180,http://www.alfa.com/en/GP100W.pgm?DSSTK=A12847,Alfa Aesar,2,89,90,1
14283,"2,4-dimethoxyacetophenone",COc1cc(ccc1C(C)=O)OC,41,63208,http://www.amazon.com/dp/B003XEQTLE,Aldrich Chemical Company; Aldrich Catalog-Handbook of Fine Chemicals; Milwaukee; WI; 1984.,2,40,41,1
564,"1,3-dimethyluracil",Cn1ccc(=O)n(c1=O)C,121,63310,http://www.alfa.com/en/GP100W.pgm?DSSTK=L19664,Alfa Aesar,2,120,121,1
2694,2-hydroxy-3-methoxybenzoic acid,COc1cccc(c1O)C(=O)O,152,63328,http://www.alfa.com/en/GP100W.pgm?DSSTK=L01658,Alfa Aesar,2,151,152,1
6241,7-methylindole,Cc1cccc2c1[nH]cc2,84,63459,http://www.alfa.com/en/GP100W.pgm?DSSTK=L17521,Alfa Aesar,2,84,85,1
5411,4-methylphenoxyacetic acid,Cc1ccc(cc1)OCC(=O)O,140,63512,http://www.alfa.com/en/GP100W.pgm?DSSTK=A13230,Alfa Aesar,2,140,141,1
7147,ethyl 5-nitro-2-furoate,CCOC(=O)c1ccc(o1)[N+](=O)[O-],100,63522,http://www.alfa.com/en/GP100W.pgm?DSSTK=B24861,Alfa Aesar,2,100,101,1
6493,benzyl phenyl ether,c1ccc(cc1)COc2ccccc2,39,63533,http://www.alfa.com/en/GP100W.pgm?DSSTK=B22539,Alfa Aesar,2,39,40,1
15509,"5,6-Diphenyl-3-(pyridin-2-yl)-1,2,4-triazine",c1cc(ccc1)c2nnc(nc2c3ccccc3)c4ccccn4,191,63757,http://msds.chem.ox.ac.uk/,academic website,2,191,192,1
5717,5-aminoisoquinoline,c1cc2cnccc2c(c1)N,129,63931,http://www.alfa.com/en/GP100W.pgm?DSSTK=L01223,Alfa Aesar,2,128,129,1
5473,4-nitrobenzophenone,c1ccc(cc1)C(=O)c2ccc(cc2)[N+](=O)[O-],137,64003,http://www.alfa.com/en/GP100W.pgm?DSSTK=B20405,Alfa Aesar,2,137,138,1
1109,"2,2':6',2''-terpyridine",c1ccnc(c1)c2cccc(n2)c3ccccn3,91,64012,http://www.alfa.com/en/GP100W.pgm?DSSTK=A17750,Alfa Aesar,2,90,91,1
13805,"2,5-dihydroxybenzaldehyde",O=Cc1cc(O)ccc1O,98,64111,http://www.amazon.com/dp/B003XEQTLE,Aldrich Chemical Company; Aldrich Catalog-Handbook of Fine Chemicals; Milwaukee; WI; 1984.,2,98,99,1
894,(4-bromobutoxy)benzene,c1ccc(cc1)OCCCCBr,42,64147,http://www.alfa.com/en/GP100W.pgm?DSSTK=A14956,Alfa Aesar,2,41,42,1
14281,"2,5-dimethoxyacetophenone",COc1ccc(cc1C(C)=O)OC,20,64152,http://www.amazon.com/dp/B003XEQTLE,Aldrich Chemical Company; Aldrich Catalog-Handbook of Fine Chemicals; Milwaukee; WI; 1984.,2,19,20,1
14989,1-{[2-(4-Ethoxyphenyl)-2-methylpropoxy]methyl}-3-phenoxybenzene,CCOc1ccc(cc1)C(C)(C)COCc3cc(Oc2ccccc2)ccc3,36,64377,http://msds.chem.ox.ac.uk/,academic website,2,36,37,1
14380,o-bromobenzyl alcohol,OCc1ccccc1Br,81,65682,http://www.amazon.com/dp/B003XEQTLE,Aldrich Chemical Company; Aldrich Catalog-Handbook of Fine Chemicals; Milwaukee; WI; 1984.,2,80,81,1
23713,"propanoic acid, 2-(2-chlorophenoxy)-",Clc1ccccc1OC(C)C(=O)O,114,65694,http://www.srcinc.com/what-we-do/product.aspx?id=133,PHYSPROP,2,113,114,1
3650,3-benzoylpropionic acid,c1ccc(cc1)C(=O)CCC(=O)O,117,65703,http://www.alfa.com/en/GP100W.pgm?DSSTK=A16636,Alfa Aesar,2,117,118,1
2522,2-cyanobenzamide,c1ccc(c(c1)C#N)C(=O)N,173,65715,http://www.alfa.com/en/GP100W.pgm?DSSTK=B21596,Alfa Aesar,2,172,173,1
7921,N-benzylbenzamide,c1ccc(cc1)CNC(=O)c2ccccc2,106,66512,http://www.alfa.com/en/GP100W.pgm?DSSTK=A12204,Alfa Aesar,2,105,106,1
1495,"2,4-difluorobenzoic acid",c1cc(c(cc1F)F)C(=O)O,188,66716,http://www.alfa.com/en/GP100W.pgm?DSSTK=A13403,Alfa Aesar,2,188,189,1
2503,2-chloropyrimidine,c1cnc(nc1)Cl,66,66996,http://www.alfa.com/en/GP100W.pgm?DSSTK=A15394,Alfa Aesar,2,66,67,1
8027,N-cyclohexylaniline,c1ccc(cc1)NC2CCCCC2,15,67145,http://www.alfa.com/en/GP100W.pgm?DSSTK=A12409,Alfa Aesar,2,15,16,1
4353,4-(trifluoromethyl)benzamide,c1cc(ccc1C(=O)N)C(F)(F)F,184,67257,http://www.alfa.com/en/GP100W.pgm?DSSTK=A12746,Alfa Aesar,2,184,185,1
1781,"2,6-difluorobenzonitrile",c1cc(c(c(c1)F)C#N)F,30,67268,http://www.alfa.com/en/GP100W.pgm?DSSTK=A10454,Alfa Aesar,2,30,31,1
5932,"5-hydroxy-3,4-dimethoxybenzoic acid",COc1cc(cc(c1OC)O)C(=O)O,196,67282,http://www.alfa.com/en/GP100W.pgm?DSSTK=L05708,Alfa Aesar,2,195,196,1
7302,hexanoic anhydride,CCCCCC(=O)OC(=O)CCCCC,-40,67479,http://www.alfa.com/en/GP100W.pgm?DSSTK=B23756,Alfa Aesar,2,-41,-40,1
4620,4-benzoylbiphenyl,c1ccc(cc1)c2ccc(cc2)C(=O)c3ccccc3,101,67593,http://www.alfa.com/en/GP100W.pgm?DSSTK=A15573,Alfa Aesar,2,100,101,1
2949,2-naphthoyl chloride,c1ccc2cc(ccc2c1)C(=O)Cl,50,67790,http://www.alfa.com/en/GP100W.pgm?DSSTK=A14046,Alfa Aesar,2,50,51,1
5352,4-methoxyphenyl isothiocyanate,COc1ccc(cc1)N=C=S,19,67835,http://www.alfa.com/en/GP100W.pgm?DSSTK=A15331,Alfa Aesar,2,18,19,1
6358,allylmalonic acid,C=CCC(C(=O)O)C(=O)O,104,68265,http://www.alfa.com/en/GP100W.pgm?DSSTK=A17443,Alfa Aesar,2,104,105,1
2088,2-biphenylmethanol,c1ccc(cc1)c2ccccc2CO,49,68709,http://www.alfa.com/en/GP100W.pgm?DSSTK=L07094,Alfa Aesar,2,49,50,1
4307,4-(hydroxymethyl)benzoic acid,c1cc(ccc1CO)C(=O)O,181,68837,http://www.alfa.com/en/GP100W.pgm?DSSTK=B22183,Alfa Aesar,2,181,182,1
14693,"1,3-dichloro-5-iodobenzene",Ic1cc(Cl)cc(Cl)c1,56,68896,http://www.amazon.com/dp/B003XEQTLE,Aldrich Chemical Company; Aldrich Catalog-Handbook of Fine Chemicals; Milwaukee; WI; 1984.,2,56,57,1
5262,4-iodobenzonitrile,c1cc(ccc1C#N)I,126,68939,http://www.alfa.com/en/GP100W.pgm?DSSTK=B25104,Alfa Aesar,2,125,126,1
6528,biphenyl-4-carboxaldehyde,c1ccc(cc1)c2ccc(cc2)C=O,59,69150,http://www.alfa.com/en/GP100W.pgm?DSSTK=A15839,Alfa Aesar,2,59,60,1
4154,3-nitrophenyl isocyanate,c1cc(cc(c1)[N+](=O)[O-])N=C=O,52,69290,http://www.alfa.com/en/GP100W.pgm?DSSTK=A16920,Alfa Aesar,2,51,52,1
8678,triphenylmethyl mercaptan,c1ccc(cc1)C(c2ccccc2)(c3ccccc3)S,106,69703,http://www.alfa.com/en/GP100W.pgm?DSSTK=A14888,Alfa Aesar,2,105,106,1
2010,2-amino-5-nitropyridine,c1cc(ncc1[N+](=O)[O-])N,188,70280,http://www.alfa.com/en/GP100W.pgm?DSSTK=A11352,Alfa Aesar,2,187,188,1
8382,quinoline-4-carboxaldehyde,c1ccc2c(c1)c(ccn2)C=O,50,70450,http://www.alfa.com/en/GP100W.pgm?DSSTK=L20203,Alfa Aesar,2,50,51,1
5207,4-hydroxy-3-methoxybenzonitrile,COc1cc(ccc1O)C#N,87,70511,http://www.alfa.com/en/GP100W.pgm?DSSTK=A18056,Alfa Aesar,2,86,87,1
8301,piperonylonitrile,c1cc2c(cc1C#N)OCO2,93,70512,http://www.alfa.com/en/GP100W.pgm?DSSTK=A13012,Alfa Aesar,2,93,94,1
1117,"2,2-bis(hydroxymethyl)propionic acid",CC(CO)(CO)C(=O)O,189,70865,http://www.alfa.com/en/GP100W.pgm?DSSTK=L14014,Alfa Aesar,2,189,190,1
27524,2-methoxy-1-naphthaldehyde,O=Cc1c2c(ccc1OC)cccc2,84,71672,http://www.alfa.com/content/msds/USA/B20483.pdf,Alfa Aesar,2,83,84,1
16075,Phenyl vinyl sulfone,O=S(=O)(C=C)c1ccccc1,68,71964,http://msds.chem.ox.ac.uk/,academic website,2,68,69,1
1509,"2',4'-dihydroxypropiophenone",CCC(=O)c1ccc(cc1O)O,100,72148,http://www.alfa.com/en/GP100W.pgm?DSSTK=B23414,Alfa Aesar,2,99,100,1
2452,2-chlorobenzhydrazide,c1ccc(c(c1)C(=O)NN)Cl,118,72174,http://www.alfa.com/en/GP100W.pgm?DSSTK=A11361,Alfa Aesar,2,118,119,1
1989,2-amino-5-chlorobenzonitrile,c1cc(c(cc1Cl)C#N)N,96,72274,http://www.alfa.com/en/GP100W.pgm?DSSTK=B22690,Alfa Aesar,2,96,97,1
8621,triethyl methanetricarboxylate,CCOC(=O)C(C(=O)OCC)C(=O)OCC,28,72680,http://www.alfa.com/en/GP100W.pgm?DSSTK=L08356,Alfa Aesar,2,28,29,1
27594,"2,6-dichlorophenylacetic acid",Clc1cccc(Cl)c1CC(=O)O,159,73131,http://www.alfa.com/content/msds/USA/B21354.pdf,Alfa Aesar,2,159,160,1
610,"1,3-bis(diphenylphosphino)propane",c1ccc(cc1)P(CCCP(c2ccccc2)c3ccccc3)c4ccccc4,61,73276,http://www.alfa.com/en/GP100W.pgm?DSSTK=A12931,Alfa Aesar,2,60,61,1
521,"1,4-bis(3-aminopropyl)piperazine",C1CN(CCN1CCCN)CCCN,14,73658,http://www.alfa.com/en/GP100W.pgm?DSSTK=L12508,Alfa Aesar,2,14,15,1
15498,4-Nitrophenyl carbonochloridate,O=C(Cl)Oc1ccc(cc1)[N+]([O-])=O,78,74123,http://msds.chem.ox.ac.uk/,academic website,2,78,79,1
3699,3-bromo-4-methylaniline,Cc1ccc(cc1Br)N,27,74169,http://www.alfa.com/en/GP100W.pgm?DSSTK=B24670,Alfa Aesar,2,26,27,1
1120,"2,2'-dibromobiphenyl",c1ccc(c(c1)c2ccccc2Br)Br,80,74932,http://www.alfa.com/en/GP100W.pgm?DSSTK=A17632,Alfa Aesar,2,80,81,1
4522,4'-acetoxyacetophenone,CC(=O)c1ccc(cc1)OC(=O)C,53,74935,http://www.alfa.com/en/GP100W.pgm?DSSTK=B22284,Alfa Aesar,2,53,54,1
6446,benzo-15-crown-5,c1ccc2c(c1)OCCOCCOCCOCCO2,80,75956,http://www.alfa.com/en/GP100W.pgm?DSSTK=A16011,Alfa Aesar,2,79,80,1
6113,6-chloroindole,c1cc(cc2c1cc[nH]2)Cl,89,78578,http://www.alfa.com/en/GP100W.pgm?DSSTK=B23650,Alfa Aesar,2,89,90,1
14560,"1-bromo-2,4-dimethoxybenzene",COc1cc(ccc1Br)OC,26,78722,http://www.amazon.com/dp/B003XEQTLE,Aldrich Chemical Company; Aldrich Catalog-Handbook of Fine Chemicals; Milwaukee; WI; 1984.,2,25,26,1
24364,"trans-p-menth-6-ene-2,8-diol",OC(C)(C)C1CC=C(C)C(O)C1,131,82589,http://www.srcinc.com/what-we-do/product.aspx?id=133,PHYSPROP,2,130,131,1
5434,4-n-decylaniline,CCCCCCCCCCc1ccc(cc1)N,24,83338,http://www.alfa.com/en/GP100W.pgm?DSSTK=L08620,Alfa Aesar,2,24,25,1
14382,4-chloro-2-methoxybenzoic_acid,OC(=O)c1ccc(Cl)cc1OC,146,84565,http://www.amazon.com/dp/B003XEQTLE,Aldrich Chemical Company; Aldrich Catalog-Handbook of Fine Chemicals; Milwaukee; WI; 1984.,2,146,147,1
2746,2-hydroxyoctanoic acid,CCCCCCC(C(=O)O)O,69,84994,http://www.alfa.com/en/GP100W.pgm?DSSTK=L02314,Alfa Aesar,2,69,70,1
3027,2-phenylcyclohexanone,c1ccc(cc1)C2CCCCC2=O,58,86285,http://www.alfa.com/en/GP100W.pgm?DSSTK=A17340,Alfa Aesar,2,57,58,1
5260,4-iodobenzaldehyde,c1cc(ccc1C=O)I,77,87265,http://www.alfa.com/en/GP100W.pgm?DSSTK=L17448,Alfa Aesar,2,77,78,1
27527,"2-Methyl-3,5-dinitrobenzoic acid",CC1=C(C=C(C=C1[N+](=O)[O-])[N+](=O)[O-])C(=O)O,206,89258,http://dx.doi.org/10.1016/j.chemosphere.2013.10.095,Abraham M.H. and Acree Jr. W.E. The solubility of liquid and solid compounds in dry octan-1-ol. Chemosphere (2013),2,205,206,1
3458,"3,5-difluorobenzoic acid",c1c(cc(cc1F)F)C(=O)O,121,91500,http://www.alfa.com/en/GP100W.pgm?DSSTK=A17033,Alfa Aesar,2,121,122,1
7949,N-benzyloxycarbonyl-l-proline,c1ccc(cc1)COC(=O)N2CCC[C@H]2C(=O)O,76,92134,http://www.alfa.com/en/GP100W.pgm?DSSTK=B21672,Alfa Aesar,2,76,77,1
24620,"1,3-propanediol, 2-nitro-1-phenyl-, diacetate (e",[O-][N+](=O)C(COC(C)=O)C(OC(C)=O)c1ccccc1,71,96000,http://www.srcinc.com/what-we-do/product.aspx?id=133,PHYSPROP,2,70,71,1
4198,3-piperidinemethanol,C1CC(CNC1)CO,60,96573,http://www.alfa.com/en/GP100W.pgm?DSSTK=L04264,Alfa Aesar,2,60,61,1
13276,5-methyl-1-hexyne,CC(C)CCC#C,-124,121154,http://www.amazon.com/dp/B002IYRJWI,American Petroleum Institute. Research Project 44; Selected Values of Properties of Hydrocarbons and Related Compounds. Texas A & M University; College Station; TX; 1973.,2,-125,-124,1
5528,4-n-propylbenzoic acid,CCCc1ccc(cc1)C(=O)O,142,121262,http://www.alfa.com/en/GP100W.pgm?DSSTK=A14538,Alfa Aesar,2,142,143,1
5982,5-methylbenzofuroxan,Cc1ccc2c(c1)no[n+]2[O-],97,123905,http://www.alfa.com/en/GP100W.pgm?DSSTK=A15124,Alfa Aesar,2,96,97,1
24799,d-galacturonic acid,OC(C(O)C(O)C(O)C=O)C(=O)O,166,134737,http://www.srcinc.com/what-we-do/product.aspx?id=133,PHYSPROP,2,165,166,1
5269,4-iodophenetole,CCOc1ccc(cc1)I,28,191427,http://www.alfa.com/en/GP100W.pgm?DSSTK=B21644,Alfa Aesar,2,28,29,1