key,name,smiles,mpC,csid,link,source,count,min,max,range
17208,tetroxoprim,Nc2nc(N)ncc2Cc1cc(OC)c(OCCOC)c(OC)c1,154.5,58910,http://dx.doi.org/10.1021/ci700307p,Hughes LD; Palmer DS; Nigsch F and Mitchell JBO. 2008 Why are some properties more difficult to predict than others? A study of QSPR models of solubility; melting point and LogP. J. Chem. Inf. Model. 2008. 48 (1). pp 220?355,2,154,154.5,0.5
1941,"2-amino-4,6-dichloropyrimidine",c1c(nc(nc1Cl)N)Cl,220,58968,http://www.alfa.com/en/GP100W.pgm?DSSTK=A11330,Alfa Aesar,2,220,220.5,0.5
5405,4-methylbenzylamine,Cc1ccc(cc1)CN,12,59426,http://www.alfa.com/en/GP100W.pgm?DSSTK=A13768,Alfa Aesar,2,12,12.5,0.5
8506,tetraphenylsilane,c1ccc(cc1)[Si](c2ccccc2)(c3ccccc3)c4ccccc4,237,59493,http://www.alfa.com/en/GP100W.pgm?DSSTK=L04857,Alfa Aesar,2,236.5,237,0.5
5536,4-phenoxybenzaldehyde,c1ccc(cc1)Oc2ccc(cc2)C=O,25,59526,http://www.alfa.com/en/GP100W.pgm?DSSTK=B22329,Alfa Aesar,2,24.5,25,0.5
1653,"2,5-dimethyl-1-phenylpyrrole-3-carboxaldehyde",Cc1cc(c(n1c2ccccc2)C)C=O,89,59886,http://www.alfa.com/en/GP100W.pgm?DSSTK=L05836,Alfa Aesar,2,88.5,89,0.5
1652,"2,5-dimethyl-1-phenylpyrrole",Cc1ccc(n1c2ccccc2)C,50,59889,http://www.alfa.com/en/GP100W.pgm?DSSTK=A14614,Alfa Aesar,2,49.5,50,0.5
15180,"2,5-Dichloro-3,6-dihydroxy-1,4-benzoquinone",OC=1C(=O)C(Cl)=C(O)C(=O)C=1Cl,283,59971,http://msds.chem.ox.ac.uk/,academic website,2,283,283.5,0.5
6756,decanoyl chloride,CCCCCCCCCC(=O)Cl,-35,60340,http://www.alfa.com/en/GP100W.pgm?DSSTK=A19486,Alfa Aesar,2,-35,-34.5,0.5
3545,"3,6-dichloropyridazine",c1cc(nnc1Cl)Cl,68,60662,http://www.alfa.com/en/GP100W.pgm?DSSTK=A14795,Alfa Aesar,2,67.5,68,0.5
8180,octafluoronaphthalene,c12c(c(c(c(c1F)F)F)F)c(c(c(c2F)F)F)F,87,60886,http://www.alfa.com/en/GP100W.pgm?DSSTK=B21699,Alfa Aesar,2,87,87.5,0.5
629,"1,3,5-trifluoro-2-nitrobenzene",c1c(cc(c(c1F)[N+](=O)[O-])F)F,4,60889,http://www.alfa.com/en/GP100W.pgm?DSSTK=A17035,Alfa Aesar,2,3.5,4,0.5
1085,"2,2,2-trifluoroacetamide",C(=O)(C(F)(F)F)N,73,61036,http://www.alfa.com/en/GP100W.pgm?DSSTK=A14451,Alfa Aesar,2,72.5,73,0.5
27648,4-(trifluoromethyl)benzaldehyde,FC(F)(F)c1ccc(C=O)cc1,1.5,61311,http://www.alfa.com/content/msds/USA/A15276.pdf,Alfa Aesar,2,1.5,2,0.5
8140,N-phenyl-o-phenylenediamine,c1ccc(cc1)Nc2ccccc2N,79,61594,http://www.alfa.com/en/GP100W.pgm?DSSTK=L11616,Alfa Aesar,2,79,79.5,0.5
2128,2-bromo-4'-chloroacetophenone,c1cc(ccc1C(=O)CBr)Cl,96,61599,http://www.alfa.com/en/GP100W.pgm?DSSTK=A12607,Alfa Aesar,2,96,96.5,0.5
8188,octaphenylcyclotetrasiloxane,c1ccc(cc1)[Si]2(O[Si](O[Si](O[Si](O2)(c3ccccc3)c4ccccc4)(c5ccccc5)c6ccccc6)(c7ccccc7)c8ccccc8)c9ccccc9,201,61642,http://www.alfa.com/en/GP100W.pgm?DSSTK=L06130,Alfa Aesar,2,200.5,201,0.5
14419,methyl_2-acetoxybenzoate,O=C(C)Oc1ccccc1C(=O)OC,52,61759,http://de.wikipedia.org/wiki/Beilsteins_Handbuch_der_Organischen_Chemie,Beilstein F. K.; Beilsteins Handbuch der Organischen Chemie. Springer; Berlin; 1972.,2,51.5,52,0.5
1408,"2,4'-bipyridine",c1ccnc(c1)c2ccncc2,61,61763,http://www.alfa.com/en/GP100W.pgm?DSSTK=H27366,Alfa Aesar,2,61,61.5,0.5
5337,4-methoxybenzophenone,COc1ccc(cc1)C(=O)c2ccccc2,62,62361,http://www.alfa.com/en/GP100W.pgm?DSSTK=B23123,Alfa Aesar,2,61.5,62,0.5
7193,ethyl nicotinate,CCOC(=O)c1cccnc1,9,62402,http://www.alfa.com/en/GP100W.pgm?DSSTK=L03215,Alfa Aesar,2,8.5,9,0.5
14678,methyl_3-iodobenzoate,Ic1cc(ccc1)C(=O)OC,54,62471,http://de.wikipedia.org/wiki/Beilsteins_Handbuch_der_Organischen_Chemie,Beilstein F. K.; Beilsteins Handbuch der Organischen Chemie. Springer; Berlin; 1972.,2,54,54.5,0.5
1637,"2,5-diiodothiophene",c1cc(sc1I)I,41,62577,http://www.alfa.com/en/GP100W.pgm?DSSTK=A12443,Alfa Aesar,2,41,41.5,0.5
3186,3-(trifluoromethyl)benzophenone,c1ccc(cc1)C(=O)c2cccc(c2)C(F)(F)F,52,62965,http://www.alfa.com/en/GP100W.pgm?DSSTK=B20897,Alfa Aesar,2,52,52.5,0.5
6829,diethyl acetylenedicarboxylate,CCOC(=O)C#CC(=O)OCC,2,63002,http://www.alfa.com/en/GP100W.pgm?DSSTK=A11719,Alfa Aesar,2,1.5,2,0.5
8120,nonanoyl chloride,CCCCCCCCC(=O)Cl,-61,63017,http://www.alfa.com/en/GP100W.pgm?DSSTK=A17671,Alfa Aesar,2,-61,-60.5,0.5
4744,4-bromo-2-nitroaniline,c1cc(c(cc1Br)[N+](=O)[O-])N,112,63320,http://www.alfa.com/en/GP100W.pgm?DSSTK=B25468,Alfa Aesar,2,111.5,112,0.5
8969,morphazinamide,O=C(NCN1CCOCC1)c2cnccn2,119,63555,http://dx.doi.org/10.1021/ci020280x,Bergstrom C. A. S.; Norinder U.; Luthman K.; Artursson P. Molecular Descriptors Influencing Melting Point and Their Role in Classification of Solid Drugs. J. Chem. Inf. Comput. Sci.; (Article); 2003; 43(4); 1177-1415,2,118.5,119,0.5
6137,6-heptenoic acid,C=CCCCCC(=O)O,-6,63871,http://www.alfa.com/en/GP100W.pgm?DSSTK=L13144,Alfa Aesar,2,-6.5,-6,0.5
5148,4-fluorobenzamide,c1cc(ccc1C(=O)N)F,156,64644,http://www.alfa.com/en/GP100W.pgm?DSSTK=L06831,Alfa Aesar,2,155.5,156,0.5
7179,ethyl indole-2-carboxylate,CCOC(=O)c1cc2ccccc2[nH]1,124,65903,http://www.alfa.com/en/GP100W.pgm?DSSTK=L00797,Alfa Aesar,2,123.5,124,0.5
14814,(3-Chlorophenyl)acetonitrile,Clc1cc(CC#N)ccc1,11.5,66365,http://msds.chem.ox.ac.uk/,academic website,2,11.5,12,0.5
4812,4-bromoisoquinoline,c1ccc2c(c1)cncc2Br,41,66385,http://www.alfa.com/en/GP100W.pgm?DSSTK=A15951,Alfa Aesar,2,41,41.5,0.5
15151,"2,3-Diphenylquinoxaline",c1cccc2nc(c(nc12)c3ccccc3)c4ccccc4,126.5,66909,http://msds.chem.ox.ac.uk/,academic website,2,126,126.5,0.5
7225,ethylidenecyclopentane,CC=C1CCCC1,-130,67620,http://www.alfa.com/en/GP100W.pgm?DSSTK=B20209,Alfa Aesar,2,-130,-129.5,0.5
808,1-(4-fluorophenyl)piperazine,c1cc(ccc1N2CCNCC2)F,32,67803,http://www.alfa.com/en/GP100W.pgm?DSSTK=A14541,Alfa Aesar,2,31.5,32,0.5
4580,4-amino-3-methylbenzoic acid,Cc1cc(ccc1N)C(=O)O,170,68122,http://www.alfa.com/en/GP100W.pgm?DSSTK=B24579,Alfa Aesar,2,169.5,170,0.5
1356,"2,4,6,8-tetramethyl-2,4,6,8-tetravinylcyclotetrasiloxane",C[Si]1(O[Si](O[Si](O[Si](O1)(C)C=C)(C)C=C)(C)C=C)C=C,-43,68224,http://www.alfa.com/en/GP100W.pgm?DSSTK=L16645,Alfa Aesar,2,-43.5,-43,0.5
13273,3-heptyne,CCCC#CCC,-131,68268,http://www.amazon.com/dp/B002IYRJWI,American Petroleum Institute. Research Project 44; Selected Values of Properties of Hydrocarbons and Related Compounds. Texas A & M University; College Station; TX; 1973.,2,-131,-130.5,0.5
1374,"2,4,6-trichloropyrimidine",c1c(nc(nc1Cl)Cl)Cl,23,69792,http://www.alfa.com/en/GP100W.pgm?DSSTK=A12842,Alfa Aesar,2,22.5,23,0.5
15476,4-Methoxy-4-oxobutanoic acid,O=C(O)CCC(=O)OC,57.5,69896,http://msds.chem.ox.ac.uk/,academic website,2,57.5,58,0.5
15435,4-Amino-2-chlorophenol,Nc1cc(Cl)c(O)cc1,151.5,69983,http://msds.chem.ox.ac.uk/,academic website,2,151.5,152,0.5
8245,phenanthrene-9-carboxaldehyde,c1ccc2c(c1)cc(c3c2cccc3)C=O,102,70806,http://www.alfa.com/en/GP100W.pgm?DSSTK=B25648,Alfa Aesar,2,101.5,102,0.5
5559,4-phenylcyclohexanone,c1ccc(cc1)C2CCC(=O)CC2,80,70962,http://www.alfa.com/en/GP100W.pgm?DSSTK=L08614,Alfa Aesar,2,79.5,80,0.5
5070,4-ethoxyphenylacetic acid,CCOc1ccc(cc1)CC(=O)O,89,70988,http://www.alfa.com/en/GP100W.pgm?DSSTK=A10129,Alfa Aesar,2,88.5,89,0.5
1867,2-acetyl-5-bromothiophene,CC(=O)c1ccc(s1)Br,95,71655,http://www.alfa.com/en/GP100W.pgm?DSSTK=A14826,Alfa Aesar,2,94.5,95,0.5
1453,"2,4-dichloro-6-methylpyrimidine",Cc1cc(nc(n1)Cl)Cl,46,71784,http://www.alfa.com/en/GP100W.pgm?DSSTK=A10363,Alfa Aesar,2,46,46.5,0.5
14311,1-ethyl-3-phenylbenzene,CCc1cccc(c1)c2ccccc2,-28,72051,http://www.amazon.com/dp/B002IYRJWI,American Petroleum Institute. Research Project 44; Selected Values of Properties of Hydrocarbons and Related Compounds. Texas A & M University; College Station; TX; 1973.,2,-28,-27.5,0.5
15042,"1-Hydroxypyrrolidine-2,5-dione",O=C1CCC(=O)N1O,96.5,72416,http://msds.chem.ox.ac.uk/,academic website,2,96.5,97,0.5
15791,Ethyl 2-cyanoacrylate,N#CC(=C)C(=O)OCC,-22,73564,http://msds.chem.ox.ac.uk/,academic website,2,-22.5,-22,0.5
4181,3-phenoxypropionic acid,c1ccc(cc1)OCCC(=O)O,98,73626,http://www.alfa.com/en/GP100W.pgm?DSSTK=A17842,Alfa Aesar,2,97.5,98,0.5
4324,4-(methylthio)benzoic acid,CSc1ccc(cc1)C(=O)O,195,75095,http://www.alfa.com/en/GP100W.pgm?DSSTK=B25706,Alfa Aesar,2,194.5,195,0.5
2397,2-chloro-5-nitrotoluene,Cc1cc(ccc1Cl)[N+](=O)[O-],43,75176,http://www.alfa.com/en/GP100W.pgm?DSSTK=L10832,Alfa Aesar,2,42.5,43,0.5
1778,"2,6-difluorobenzamide",c1cc(c(c(c1)F)C(=O)N)F,147,78873,http://www.alfa.com/en/GP100W.pgm?DSSTK=A11685,Alfa Aesar,2,146.5,147,0.5
2740,2-hydroxycarbazole,c1ccc2c(c1)c3ccc(cc3[nH]2)O,272,84451,http://www.alfa.com/en/GP100W.pgm?DSSTK=H27765,Alfa Aesar,2,271.5,272,0.5
4813,4-bromomandelic acid,c1cc(ccc1C(C(=O)O)O)Br,117,88403,http://www.alfa.com/en/GP100W.pgm?DSSTK=A12978,Alfa Aesar,2,117,117.5,0.5
6034,5-undecanol,CCCCCCC(CCCC)O,-4,89117,http://www.alfa.com/en/GP100W.pgm?DSSTK=L04019,Alfa Aesar,2,-4,-3.5,0.5
13279,1-ethylcyclopentene,CCC1=CCCC1,-118,121113,http://www.amazon.com/dp/B002IYRJWI,American Petroleum Institute. Research Project 44; Selected Values of Properties of Hydrocarbons and Related Compounds. Texas A & M University; College Station; TX; 1973.,2,-118.5,-118,0.5
5065,4-ethoxybenzonitrile,CCOc1ccc(cc1)C#N,62,124526,http://www.alfa.com/en/GP100W.pgm?DSSTK=A19806,Alfa Aesar,2,61.5,62,0.5
5968,5-methyl-1-phenyl-1h-pyrazole-4-carboxylic acid,Cc1c(cnn1c2ccccc2)C(=O)O,167,128103,http://www.alfa.com/en/GP100W.pgm?DSSTK=L12594,Alfa Aesar,2,167,167.5,0.5
28373,p-toluenesulfonylmethyl isocyanide,O=S(=O)(c1ccc(cc1)C)C[N+]#[C-],112.5,142204,http://www.alfa.com/content/msds/USA/A14312.pdf,Alfa Aesar,2,112,112.5,0.5
7631,methyl 5-chloro-2-nitrobenzoate,COC(=O)c1cc(ccc1[N+](=O)[O-])Cl,49,149513,http://www.alfa.com/en/GP100W.pgm?DSSTK=A19098,Alfa Aesar,2,48.5,49,0.5
7329,indole-3-carbonitrile,c1ccc2c(c1)c(c[nH]2)C#N,180,200562,http://www.alfa.com/en/GP100W.pgm?DSSTK=A16041,Alfa Aesar,2,180,180.5,0.5
12592,3-METHYL-2-PHENYLINDOLE,N1=C2C=CC=CC2=C(C)C1c1ccccc1,91,226885,http://dx.doi.org/10.1021/ci0500132,Karthikeyan M.; Glen R.C.; Bender A. General melting point prediction based on a diverse compound dataset and artificial neural networks. J. Chem. Inf. Model.; 2005; 45(3); 581-4174,2,91,91.5,0.5
16110,Retinol,CC=1CCC[C@](C)(C)C=1/C=CC(C)=CC=CC(C)=CCO,63,393012,http://msds.chem.ox.ac.uk/,academic website,2,63,63.5,0.5
1227,"2,3,6-trifluorobenzoic acid",c1cc(c(c(c1F)C(=O)O)F)F,131,453633,http://www.alfa.com/en/GP100W.pgm?DSSTK=B20666,Alfa Aesar,2,130.5,131,0.5
7671,methyl indole-3-carboxylate,COC(=O)c1c[nH]c2c1cccc2,151,512092,http://www.alfa.com/en/GP100W.pgm?DSSTK=L14516,Alfa Aesar,2,150.5,151,0.5
5752,5-bromo-2-furaldehyde,c1cc(oc1C=O)Br,84,521915,http://www.alfa.com/en/GP100W.pgm?DSSTK=B22536,Alfa Aesar,2,83.5,84,0.5
8297,piperine,c1cc2c(cc1/C=C/C=C/C(=O)N3CCCCC3)OCO2,131,553590,http://www.alfa.com/en/GP100W.pgm?DSSTK=A13510,Alfa Aesar,2,131,131.5,0.5
13318,trans-2-heptene,CC=CCCCC,-109,555074,http://www.amazon.com/dp/B002IYRJWI,American Petroleum Institute. Research Project 44; Selected Values of Properties of Hydrocarbons and Related Compounds. Texas A & M University; College Station; TX; 1973.,2,-109.5,-109,0.5
15376,3-Fluoro-L-tyrosine,Fc1cc(C[C@H](N)C(=O)O)ccc1O,260.5,558483,http://msds.chem.ox.ac.uk/,academic website,2,260.5,261,0.5
1761,"2,6-dichlorothiobenzamide",c1cc(c(c(c1)Cl)C(=S)N)Cl,151,2016563,http://www.alfa.com/en/GP100W.pgm?DSSTK=H26636,Alfa Aesar,2,151,151.5,0.5
16226,Alprostadil,O[C@@H]1CC(=O)[C@H](CCCCCCC(=O)O)[C@H]1/C=C/[C@@H](O)CCCCC,115.5,4444306,http://www.drugbank.ca/drugs/DB00770,DrugBank,2,115.5,116,0.5
15899,"Methyl (3beta,16beta,17alpha,18beta,20alpha)-11,17-dimethoxy-18-{[(2E)-3-(3,4,5-trimethoxyphenyl)prop-2-enoyl]oxy}yohimban-16-carboxylate",COc1cc(cc(OC)c1OC)/C=C/C(=O)O[C@@H]3C[C@@H]4CN5CCc2c6ccc(OC)cc6nc2[C@H]5C[C@@H]4[C@@H]([C@H]3OC)C(=O)OC,238,4444446,http://msds.chem.ox.ac.uk/,academic website,2,238,238.5,0.5
6228,7-hydroxycoumarin,c1cc(cc2c1ccc(=O)o2)O,230,4444774,http://www.alfa.com/en/GP100W.pgm?DSSTK=L04082,Alfa Aesar,2,230,230.5,0.5
3372,"3,5,7-trihydroxyflavone",c1ccc(cc1)c2c(c(=O)c3c(cc(cc3o2)O)O)O,215,4444935,http://www.alfa.com/en/GP100W.pgm?DSSTK=L14223,Alfa Aesar,2,214.5,215,0.5
7318,hyodeoxycholic acid,C[C@H](CCC(=O)O)[C@H]1CC[C@@H]2[C@@]1(CC[C@H]3[C@H]2C[C@@H]([C@H]4[C@@]3(CC[C@H](C4)O)C)O)C,198,4446908,http://www.alfa.com/en/GP100W.pgm?DSSTK=B20506,Alfa Aesar,2,198,198.5,0.5
13311,3-methyl-cis-2-hexene,CC=C(C)CCC,-119,4512637,http://www.amazon.com/dp/B002IYRJWI,American Petroleum Institute. Research Project 44; Selected Values of Properties of Hydrocarbons and Related Compounds. Texas A & M University; College Station; TX; 1973.,2,-119,-118.5,0.5
4150,3-nitrochalcone,c1ccc(cc1)C(=O)/C=C/c2cccc(c2)[N+](=O)[O-],146,4520653,http://www.alfa.com/en/GP100W.pgm?DSSTK=L01153,Alfa Aesar,2,145.5,146,0.5
8885,piprozolin,CCOC(=O)C=C2SC(N1CCCCC1)C(=O)N2CC,86,4744588,http://dx.doi.org/10.1021/ci020280x,Bergstrom C. A. S.; Norinder U.; Luthman K.; Artursson P. Molecular Descriptors Influencing Melting Point and Their Role in Classification of Solid Drugs. J. Chem. Inf. Comput. Sci.; (Article); 2003; 43(4); 1177-1331,2,86,86.5,0.5
16103,Pyridine-2-thiol 1-oxide,[O-][n+]1ccccc1S,70.5,10446934,http://msds.chem.ox.ac.uk/,academic website,2,70.5,71,0.5
393,10-undecenoic acid,C=CCCCCCCCCC(=O)O,24,10771160,http://www.alfa.com/en/GP100W.pgm?DSSTK=A19122,Alfa Aesar,2,24,24.5,0.5
15934,N-(3-Methylphenyl)acetamide,O=C(C)Nc1cc(C)ccc1,65,11332993,http://msds.chem.ox.ac.uk/,academic website,2,65,65.5,0.5
7448,meso-erythritol,C(C(C(CO)O)O)O,122,13835932,http://www.alfa.com/en/GP100W.pgm?DSSTK=A15813,Alfa Aesar,2,121.5,122,0.5
3473,"3,5-dihydroxytoluene",Cc1cc(cc(c1)O)O,107,13839080,http://www.alfa.com/en/GP100W.pgm?DSSTK=L18567,Alfa Aesar,2,107,107.5,0.5
7409,lepidine,Cc1ccnc2c1cccc2,10,13854818,http://www.alfa.com/en/GP100W.pgm?DSSTK=A14040,Alfa Aesar,2,9.5,10,0.5
8375,quinaldine,Cc1ccc2ccccc2n1,-2,13870160,http://www.alfa.com/en/GP100W.pgm?DSSTK=A13412,Alfa Aesar,2,-2,-1.5,0.5
295,1-bromo-3-chlorobenzene,c1cc(cc(c1)Br)Cl,-22,13875377,http://www.alfa.com/en/GP100W.pgm?DSSTK=A14026,Alfa Aesar,2,-22,-21.5,0.5
14865,1-(Pyridin-2-yldiazenyl)-2-naphthol,Oc2ccc3ccccc3c2N=Nc1ccccn1,139.5,17967090,http://msds.chem.ox.ac.uk/,academic website,2,139.5,140,0.5
2817,2-methoxy-4-methylphenol,Cc1ccc(c(c1)OC)O,6,21105936,http://www.alfa.com/en/GP100W.pgm?DSSTK=A13603,Alfa Aesar,2,5.5,6,0.5
2653,2-fluorobenzaldehyde,c1ccc(c(c1)C=O)F,-45,21106521,http://www.alfa.com/en/GP100W.pgm?DSSTK=A13800,Alfa Aesar,2,-45,-44.5,0.5
1296,"2,3-dihydrobenzo[b]furan",c1ccc2c(c1)CCO2,-21,21106522,http://www.alfa.com/en/GP100W.pgm?DSSTK=A11368,Alfa Aesar,2,-21.5,-21,0.5
14547,"1,2,3,4-tetrachlorobenzene",Clc1ccc(Cl)c(Cl)c1Cl,47,21106540,http://www.amazon.com/dp/B003XEQTLE,Aldrich Chemical Company; Aldrich Catalog-Handbook of Fine Chemicals; Milwaukee; WI; 1984.,2,47,47.5,0.5
5082,4-ethylpyridine,CCc1ccncc1,-91,21106560,http://www.alfa.com/en/GP100W.pgm?DSSTK=A12883,Alfa Aesar,2,-91,-90.5,0.5
14347,1-bromo-4-ethylbenzene,CCc1ccc(Br)cc1,-43,21106562,http://www.questia.com/library/book/physical_properties_of_chemical_compounds_by_robert_rickert_dreisbach.jsp,Dreisbach R. R. Physical Properties of Chemical Compounds; Vol. I; American Chemical Society; Washington; 1955.,2,-43.5,-43,0.5
716,"1,2,4,5-tetrafluorobenzene",c1c(c(cc(c1F)F)F)F,4,21108549,http://www.alfa.com/en/GP100W.pgm?DSSTK=A17815,Alfa Aesar,2,4,4.5,0.5
7686,methyl nicotinate,COC(=O)c1cccnc1,42,21111785,http://www.alfa.com/en/GP100W.pgm?DSSTK=B23908,Alfa Aesar,2,42,42.5,0.5
626,"1,3,5-trifluorobenzene",c1c(cc(cc1F)F)F,-6,21111798,http://www.alfa.com/en/GP100W.pgm?DSSTK=A15984,Alfa Aesar,2,-6,-5.5,0.5
1483,"2,4-dichlorotoluene",Cc1ccc(cc1Cl)Cl,-13,21111905,http://www.alfa.com/en/GP100W.pgm?DSSTK=B24406,Alfa Aesar,2,-13.5,-13,0.5
1207,"2,3,5,6-tetrafluoroaniline",c1c(c(c(c(c1F)F)N)F)F,31,21112533,http://www.alfa.com/en/GP100W.pgm?DSSTK=A13898,Alfa Aesar,2,31,31.5,0.5
1353,"2',4',5'-trimethylacetophenone",Cc1cc(c(cc1C)C(=O)C)C,10,21159574,http://www.alfa.com/en/GP100W.pgm?DSSTK=A10614,Alfa Aesar,2,10,10.5,0.5
194,1-fluoro-2-iodobenzene,c1ccc(c(c1)F)I,-42,21168731,http://www.alfa.com/en/GP100W.pgm?DSSTK=A12411,Alfa Aesar,2,-42,-41.5,0.5
1125,"2,2-dichloroacetophenone",c1ccc(cc1)C(=O)C(Cl)Cl,21,21169500,http://www.alfa.com/en/GP100W.pgm?DSSTK=B23475,Alfa Aesar,2,20.5,21,0.5
1456,"2,4'-dichloroacetophenone",c1cc(ccc1C(=O)CCl)Cl,101,21170959,http://www.alfa.com/en/GP100W.pgm?DSSTK=A15954,Alfa Aesar,2,101,101.5,0.5
13996,m-nitroanisole,COc1cccc(c1)[N+]([O-])=O,38,21170967,http://www.amazon.com/dp/B003XEQTLE,Aldrich Chemical Company; Aldrich Catalog-Handbook of Fine Chemicals; Milwaukee; WI; 1984.,2,38,38.5,0.5
7076,"ethyl 3,4-dimethoxybenzoate",CCOC(=O)c1ccc(c(c1)OC)OC,44,21171999,http://www.alfa.com/en/GP100W.pgm?DSSTK=L02355,Alfa Aesar,2,43.5,44,0.5
2788,2-ketoglutaric acid,C(CC(=O)O)C(=O)C(=O)O,115,50,http://www.alfa.com/en/GP100W.pgm?DSSTK=A10256,Alfa Aesar,3,115,115.5,0.5
3327,"3,4-dihydroxyphenylacetic acid",c1cc(c(cc1CC(=O)O)O)O,129,532,http://www.alfa.com/en/GP100W.pgm?DSSTK=A15893,Alfa Aesar,3,128.5,129,0.5
15035,1H-Imidazole,c1cncn1,90,773,http://msds.chem.ox.ac.uk/,academic website,3,90,90.5,0.5
15036,1H-Indole,c1cccc2nccc12,52,776,http://msds.chem.ox.ac.uk/,academic website,3,52,52.5,0.5
15382,"3-Methyl-1,2-dihydrocyclopenta[ij]tetraphene",Cc2ccc3cc1c5ccccc5ccc1c4CCc2c34,179.5,1611,http://msds.chem.ox.ac.uk/,academic website,3,179.5,180,0.5
8750,acetylpheneturide,CCC(C(=O)NC(=O)NC(C)=O)c1ccccc1,100,1922,http://dx.doi.org/10.1021/ci020280x,Bergstrom C. A. S.; Norinder U.; Luthman K.; Artursson P. Molecular Descriptors Influencing Melting Point and Their Role in Classification of Solid Drugs. J. Chem. Inf. Comput. Sci.; (Article); 2003; 43(4); 1177-1196,3,100,100.5,0.5
16936,Amitriptyline,CN(C)CCC=C1c3ccccc3CCc2ccccc12,196.5,2075,http://www.drugbank.ca/drugs/DB00321,DrugBank,3,196,196.5,0.5
17274,busulfan,O=S(C)(=O)OCCCCOS(C)(=O)=O,116,2384,http://dx.doi.org/10.1021/ci700307p,Hughes LD; Palmer DS; Nigsch F and Mitchell JBO. 2008 Why are some properties more difficult to predict than others? A study of QSPR models of solubility; melting point and LogP. J. Chem. Inf. Model. 2008. 48 (1). pp 220?421,3,115.5,116,0.5
16644,Celecoxib,NS(=O)(=O)c1ccc(cc1)n3nc(cc3c2ccc(C)cc2)C(F)(F)F,157.5,2562,http://www.drugbank.ca/drugs/DB00482,DrugBank,3,157.5,158,0.5
5812,5-chloro-2(3h)-benzoxazolone,c1cc2c(cc1Cl)nc(o2)O,191,2632,http://www.alfa.com/en/GP100W.pgm?DSSTK=B24507,Alfa Aesar,3,191,191.5,0.5
8842,irbesartan,CCCCC2=NC1(CCCC1)C(=O)N2Cc3ccc(cc3)c4ccccc4c5nnn[nH]5,180,3618,http://dx.doi.org/10.1021/ci020280x,Bergstrom C. A. S.; Norinder U.; Luthman K.; Artursson P. Molecular Descriptors Influencing Melting Point and Their Role in Classification of Solid Drugs. J. Chem. Inf. Comput. Sci.; (Article); 2003; 43(4); 1177-1288,3,180,180.5,0.5
7403,kojic acid,c1c(occ(c1=O)O)CO,154,3708,http://www.alfa.com/en/GP100W.pgm?DSSTK=A10760,Alfa Aesar,3,153.5,154,0.5
16078,Phthalaldehyde,O=Cc1ccccc1C=O,56,4642,http://msds.chem.ox.ac.uk/,academic website,3,56,56.5,0.5
8890,pridinol,OC(CCN1CCCCC1)(c2ccccc2)c3ccccc3,120,4735,http://dx.doi.org/10.1021/ci020280x,Bergstrom C. A. S.; Norinder U.; Luthman K.; Artursson P. Molecular Descriptors Influencing Melting Point and Their Role in Classification of Solid Drugs. J. Chem. Inf. Comput. Sci.; (Article); 2003; 43(4); 1177-1336,3,120,120.5,0.5
15507,"5-(4-Chlorophenyl)-6-ethylpyrimidine-2,4-diamine",CCc1nc(N)nc(N)c1c2ccc(Cl)cc2,233,4819,http://msds.chem.ox.ac.uk/,academic website,3,233,233.5,0.5
8911,tropicamide,CCN(Cc1ccncc1)C(=O)C(CO)c2ccccc2,96,5391,http://dx.doi.org/10.1021/ci020280x,Bergstrom C. A. S.; Norinder U.; Luthman K.; Artursson P. Molecular Descriptors Influencing Melting Point and Their Role in Classification of Solid Drugs. J. Chem. Inf. Comput. Sci.; (Article); 2003; 43(4); 1177-1357,3,96,96.5,0.5
8912,tyramine,NCCc1ccc(O)cc1,164,5408,http://dx.doi.org/10.1021/ci020280x,Bergstrom C. A. S.; Norinder U.; Luthman K.; Artursson P. Molecular Descriptors Influencing Melting Point and Their Role in Classification of Solid Drugs. J. Chem. Inf. Comput. Sci.; (Article); 2003; 43(4); 1177-1358,3,164,164.5,0.5