key,name,smiles,mpC,csid,link,source,count,min,max,range
13957,4-chlorobenzyl_cyanide,Clc1ccc(CC#N)cc1,31,211145,http://www.amazon.com/dp/B003XEQTLE,Aldrich Chemical Company; Aldrich Catalog-Handbook of Fine Chemicals; Milwaukee; WI; 1984.,2,30,31,1
8337,p-tolylacetic acid,Cc1ccc(cc1)CC(=O)O,92,217532,http://www.alfa.com/en/GP100W.pgm?DSSTK=A15129,Alfa Aesar,2,92,93,1
5959,5-methoxybenzofuroxan,COc1ccc2c(c1)no[n+]2[O-],117,284177,http://www.alfa.com/en/GP100W.pgm?DSSTK=A13822,Alfa Aesar,2,117,118,1
8705,tropinone,CN1[C@@H]2CC[C@H]1CC(=O)C2,42,393722,http://www.alfa.com/en/GP100W.pgm?DSSTK=L02011,Alfa Aesar,2,42,43,1
12460,"17-(1,5-dimethylhexyl)-10,13-dimethylperhydrocyclopenta[a]phenanthrene-3,5,6-triol",OC1CCC2(C)C3CCC4(C)C(CCC4C(C)CCCC(C)C)C3CC(O)C2(O)C1,237,467749,http://dx.doi.org/10.1021/ci0500132,Karthikeyan M.; Glen R.C.; Bender A. General melting point prediction based on a diverse compound dataset and artificial neural networks. J. Chem. Inf. Model.; 2005; 45(3); 581-4042,2,237,238,1
14335,p-chlorocinnamic acid,Clc1ccc(/C=C/C(=O)O)cc1,248,553383,http://www.amazon.com/dp/B003XEQTLE,Aldrich Chemical Company; Aldrich Catalog-Handbook of Fine Chemicals; Milwaukee; WI; 1984.,2,248,249,1
8580,trans-4-methoxycinnamic acid,COc1ccc(cc1)/C=C/C(=O)O,173,609479,http://www.alfa.com/en/GP100W.pgm?DSSTK=A13870,Alfa Aesar,2,173,174,1
5552,4-phenyl-3-thiosemicarbazide,c1ccc(cc1)NC(=S)NN,138,638258,http://www.alfa.com/en/GP100W.pgm?DSSTK=A15349,Alfa Aesar,2,138,139,1
14595,4-bromocinnamic_acid,Brc1ccc(/C=C/C(=O)O)cc1,262,644222,http://www.amazon.com/dp/B003XEQTLE,Aldrich Chemical Company; Aldrich Catalog-Handbook of Fine Chemicals; Milwaukee; WI; 1984.,2,262,263,1
8397,rhodanine,C1C(=O)NC(=S)S1,169,1013337,http://www.alfa.com/en/GP100W.pgm?DSSTK=A18293,Alfa Aesar,2,169,170,1
14830,(6E)-N-(4-Hydroxy-3-methoxybenzyl)-8-methylnon-6-enamide,Oc1ccc(cc1OC)CNC(=O)CCCC/C=C/C(C)C,66,1265957,http://msds.chem.ox.ac.uk/,academic website,2,65,66,1
15335,"2-Thioxodihydropyrimidine-4,6(1H,5H)-dione",O=C1CC(=O)NC(=S)N1,234,2005830,http://msds.chem.ox.ac.uk/,academic website,2,234,235,1
2810,2-mercaptothiazoline,C1CSC(=S)N1,105,2005898,http://www.alfa.com/en/GP100W.pgm?DSSTK=L04924,Alfa Aesar,2,105,106,1
12152,Valodex,O(CCN(C)C)c1ccc(cc1)C(c1ccccc1)=C(CC)c1ccccc1,96,2015313,http://dx.doi.org/10.1021/ci0500132,Karthikeyan M.; Glen R.C.; Bender A. General melting point prediction based on a diverse compound dataset and artificial neural networks. J. Chem. Inf. Model.; 2005; 45(3); 581-3734,2,96,97,1
7847,"N,N'-diethylthiourea",CCNC(=S)NCC,77,2016737,http://www.alfa.com/en/GP100W.pgm?DSSTK=A17143,Alfa Aesar,2,77,78,1
12012,"5,10,13-trimethyltetradecahydrospiro[cyclopenta[a]phenanthrene-3,2'-[1,3]dioxolan]-17(2H)-one",O=C1CCC2C3CCC4(C)CC5(OCCO5)CCC4(C)C3CCC12C,158,2029531,http://dx.doi.org/10.1021/ci0500132,Karthikeyan M.; Glen R.C.; Bender A. General melting point prediction based on a diverse compound dataset and artificial neural networks. J. Chem. Inf. Model.; 2005; 45(3); 581-3594,2,158,159,1
11996,"7,17-dioxoandrostan-3-yl acetate",O=C1CC2CC(OC(=O)C)CCC2(C)C2CCC3(C)C(=O)CCC3C12,164,2029571,http://dx.doi.org/10.1021/ci0500132,Karthikeyan M.; Glen R.C.; Bender A. General melting point prediction based on a diverse compound dataset and artificial neural networks. J. Chem. Inf. Model.; 2005; 45(3); 581-3578,2,164,165,1
6771,D-galactose,C([C@H]([C@@H]([C@@H]([C@H](C=O)O)O)O)O)O,166,2301265,http://www.alfa.com/en/GP100W.pgm?DSSTK=A12813,Alfa Aesar,2,166,167,1
5480,4-nitrocatechol,c1cc(c(cc1[N+](=O)[O-])O)O,176,2745027,http://www.alfa.com/en/GP100W.pgm?DSSTK=A12122,Alfa Aesar,2,175,176,1
4212,3-vinylbenzoic acid,C=Cc1cccc(c1)C(=O)O,95,3637837,http://www.alfa.com/en/GP100W.pgm?DSSTK=H32556,Alfa Aesar,2,95,96,1
8573,trans-3-hexenoic acid,CC/C=C/CC(=O)O,11,4445835,http://www.alfa.com/en/GP100W.pgm?DSSTK=A13428,Alfa Aesar,2,11,12,1
937,2-(2-hydroxyphenyl)benzothiazole,c1ccc(c(c1)c2nc3ccccc3s2)O,132,10181821,http://www.alfa.com/en/GP100W.pgm?DSSTK=A19346,Alfa Aesar,2,131,132,1
15774,D-Ribitol,O[C@@H](CO)[C@H](O)[C@H](O)CO,102,10254628,http://msds.chem.ox.ac.uk/,academic website,2,102,103,1
5555,4-phenylazophenol,c1ccc(cc1)/N=N/c2ccc(cc2)O,154,10296254,http://www.alfa.com/en/GP100W.pgm?DSSTK=B25198,Alfa Aesar,2,154,155,1
2903,2'-methylacetanilide,Cc1ccccc1NC(=O)C,111,10298354,http://www.alfa.com/en/GP100W.pgm?DSSTK=A13235,Alfa Aesar,2,110,111,1
15317,2-Nitro-N-phenylacetamide,O=C(Nc1ccccc1)C[N+]([O-])=O,93,11279086,http://msds.chem.ox.ac.uk/,academic website,2,93,94,1
6931,di-n-butyl sebacate,CCCCOC(=O)CCCCCCCCC(=O)OCCCC,-11,13837584,http://www.alfa.com/en/GP100W.pgm?DSSTK=A18231,Alfa Aesar,2,-11,-10,1
13548,"2,3-dimethylaniline",Cc1cccc(N)c1C,2,13840647,http://www.amazon.com/dp/B003XEQTLE,Aldrich Chemical Company; Aldrich Catalog-Handbook of Fine Chemicals; Milwaukee; WI; 1984.,2,2,3,1
6678,coumarin,c1ccc2c(c1)ccc(=O)o2,70,13848793,http://www.alfa.com/en/GP100W.pgm?DSSTK=A15336,Alfa Aesar,2,70,71,1
2479,2-chloro-m-xylene,Cc1cccc(c1Cl)C,-36,13875381,http://www.alfa.com/en/GP100W.pgm?DSSTK=A17867,Alfa Aesar,2,-36,-35,1
4667,"4-bromo-1,2-dichlorobenzene",c1cc(c(cc1Br)Cl)Cl,24,13881395,http://www.alfa.com/en/GP100W.pgm?DSSTK=A10314,Alfa Aesar,2,24,25,1
15520,5-Isopropyl-2-methylphenol,Cc1ccc(cc1O)C(C)C,2,21105867,http://msds.chem.ox.ac.uk/,academic website,2,1,2,1
5287,4-isopropylbenzyl alcohol,CC(C)c1ccc(cc1)CO,27,21105932,http://www.alfa.com/en/GP100W.pgm?DSSTK=A12172,Alfa Aesar,2,27,28,1
15213,2-[(4-Hydroxyphenyl)diazenyl]benzoic acid,Oc2ccc(N=Nc1ccccc1C(=O)O)cc2,205,21106123,http://msds.chem.ox.ac.uk/,academic website,2,205,206,1
579,"1,3-dichloroacetone",C(C(=O)CCl)Cl,44,21106513,http://www.alfa.com/en/GP100W.pgm?DSSTK=22302,Alfa Aesar,2,44,45,1
7825,"N,N,N',N'-tetramethyl-p-phenylenediamine",CN(C)c1ccc(cc1)N(C)C,50,21106585,http://www.alfa.com/en/GP100W.pgm?DSSTK=L00559,Alfa Aesar,2,50,51,1
7687,methyl n-methylanthranilate,CNc1ccccc1C(=O)OC,18,21108245,http://www.alfa.com/en/GP100W.pgm?DSSTK=B20233,Alfa Aesar,2,18,19,1
4054,3'-methoxyacetophenone,CC(=O)c1cccc(c1)OC,-7,21111758,http://www.alfa.com/en/GP100W.pgm?DSSTK=A15604,Alfa Aesar,2,-8,-7,1
13827,4-methyl_benzyl_chloride,Cc1ccc(CCl)cc1,4,21111850,http://www.amazon.com/dp/B003XEQTLE,Aldrich Chemical Company; Aldrich Catalog-Handbook of Fine Chemicals; Milwaukee; WI; 1984.,2,4,5,1
14043,4-chloro-o-anisidine,Nc1ccc(Cl)cc1OC,51,21159424,http://www.amazon.com/dp/B003XEQTLE,Aldrich Chemical Company; Aldrich Catalog-Handbook of Fine Chemicals; Milwaukee; WI; 1984.,2,51,52,1
4659,4-benzylphenol,c1ccc(cc1)Cc2ccc(cc2)O,83,21159439,http://www.alfa.com/en/GP100W.pgm?DSSTK=B22538,Alfa Aesar,2,83,84,1
14443,"methyl_3,5-dimethoxybenzoate",COc1cc(cc(OC)c1)C(=O)OC,43,21159597,http://www.amazon.com/dp/B003XEQTLE,Aldrich Chemical Company; Aldrich Catalog-Handbook of Fine Chemicals; Milwaukee; WI; 1984.,2,42,43,1
8137,N-phenylglycine ethyl ester,CCOC(=O)CNc1ccccc1,57,21159611,http://www.alfa.com/en/GP100W.pgm?DSSTK=B22282,Alfa Aesar,2,57,58,1
317,"1-bromo-2,4-dichlorobenzene",c1cc(c(cc1Cl)Cl)Br,27,21170125,http://www.alfa.com/en/GP100W.pgm?DSSTK=A12298,Alfa Aesar,2,26,27,1
4174,3-phenoxyaniline,c1ccc(cc1)Oc2cccc(c2)N,36,21170956,http://www.alfa.com/en/GP100W.pgm?DSSTK=A17495,Alfa Aesar,2,36,37,1
1164,"2,3,4,5,6-pentafluoroanisole",COc1c(c(c(c(c1F)F)F)F)F,-38,21171396,http://www.alfa.com/en/GP100W.pgm?DSSTK=B23928,Alfa Aesar,2,-38,-37,1
16000,Nicotinonitrile,N#Cc1cccnc1,50,78,http://msds.chem.ox.ac.uk/,academic website,3,50,51,1
27680,4-hydroxybenzaldehyde,O=Cc1ccc(O)cc1,118,123,http://www.alfa.com/content/msds/USA/A13580.pdf,Alfa Aesar,3,117,118,1
6319,acetone,CC(=O)C,-94,175,http://www.alfa.com/en/GP100W.pgm?DSSTK=32451,Alfa Aesar,3,-95,-94,1
85,1-octanol,CCCCCCCCO,-16,932,http://www.alfa.com/en/GP100W.pgm?DSSTK=A15977,Alfa Aesar,3,-16,-15,1
8421,spermine,C(CCNCCCN)CNCCCN,29,1072,http://www.alfa.com/en/GP100W.pgm?DSSTK=L19562,Alfa Aesar,3,28,29,1
754,"1,10-phenanthroline, anhydrous",c1cc2ccc3cccnc3c2nc1,118,1278,http://www.alfa.com/en/GP100W.pgm?DSSTK=A13163,Alfa Aesar,3,117,118,1
16594,Alprenolol,CC(C)NCC(O)COc1ccccc1CC=C,108,2035,http://www.drugbank.ca/drugs/DB00866,DrugBank,3,108,109,1
16611,Baclofen,Clc1ccc(cc1)C(CN)CC(=O)O,207,2197,http://www.drugbank.ca/drugs/DB00181,DrugBank,3,207,208,1
8780,bufexamac,CCCCOc1ccc(CC(=O)NO)cc1,153,2372,http://dx.doi.org/10.1021/ci020280x,Bergstrom C. A. S.; Norinder U.; Luthman K.; Artursson P. Molecular Descriptors Influencing Melting Point and Their Role in Classification of Solid Drugs. J. Chem. Inf. Comput. Sci.; (Article); 2003; 43(4); 1177-1226,3,153,154,1
8791,celiprolol,CCN(CC)C(=O)Nc1ccc(OCC(O)CNC(C)(C)C)c(c1)C(C)=O,110,2563,http://dx.doi.org/10.1021/ci020280x,Bergstrom C. A. S.; Norinder U.; Luthman K.; Artursson P. Molecular Descriptors Influencing Melting Point and Their Role in Classification of Solid Drugs. J. Chem. Inf. Comput. Sci.; (Article); 2003; 43(4); 1177-1237,3,110,111,1
16031,"O,O-Diethyl O-(3,5,6-trichloropyridin-2-yl) phosphorothioate",Clc1cc(Cl)c(Cl)nc1OP(=S)(OCC)OCC,42.5,2629,http://msds.chem.ox.ac.uk/,academic website,3,41.5,42.5,1
8827,gemfibrozil,Cc1ccc(C)c(OCCCC(C)(C)C(O)=O)c1,61,3345,http://dx.doi.org/10.1021/ci020280x,Bergstrom C. A. S.; Norinder U.; Luthman K.; Artursson P. Molecular Descriptors Influencing Melting Point and Their Role in Classification of Solid Drugs. J. Chem. Inf. Comput. Sci.; (Article); 2003; 43(4); 1177-1273,3,61,62,1
8831,griseofulvin,COC1=CC(=O)CC(C)C13Oc2c(Cl)c(OC)cc(OC)c2C3=O,219,3392,http://dx.doi.org/10.1021/ci020280x,Bergstrom C. A. S.; Norinder U.; Luthman K.; Artursson P. Molecular Descriptors Influencing Melting Point and Their Role in Classification of Solid Drugs. J. Chem. Inf. Comput. Sci.; (Article); 2003; 43(4); 1177-1277,3,219,220,1
15268,2-Iodoacetamide,ICC(N)=O,94,3596,http://msds.chem.ox.ac.uk/,academic website,3,93.5,94.5,1
8958,maprotiline,CNCCCC13CCC(c2ccccc12)c4ccccc34,92,3871,http://dx.doi.org/10.1021/ci020280x,Bergstrom C. A. S.; Norinder U.; Luthman K.; Artursson P. Molecular Descriptors Influencing Melting Point and Their Role in Classification of Solid Drugs. J. Chem. Inf. Comput. Sci.; (Article); 2003; 43(4); 1177-1404,3,92,93,1
8860,modafinil,NC(=O)CS(=O)C(c1ccccc1)c2ccccc2,164,4088,http://dx.doi.org/10.1021/ci020280x,Bergstrom C. A. S.; Norinder U.; Luthman K.; Artursson P. Molecular Descriptors Influencing Melting Point and Their Role in Classification of Solid Drugs. J. Chem. Inf. Comput. Sci.; (Article); 2003; 43(4); 1177-1306,3,164,165,1
8971,nomifensine,CN3CC(c1ccccc1)c2cccc(N)c2C3,179,4371,http://dx.doi.org/10.1021/ci020280x,Bergstrom C. A. S.; Norinder U.; Luthman K.; Artursson P. Molecular Descriptors Influencing Melting Point and Their Role in Classification of Solid Drugs. J. Chem. Inf. Comput. Sci.; (Article); 2003; 43(4); 1177-1417,3,179,180,1
8903,sulpiride,CCN1CCCC1CNC(=O)c2cc(ccc2OC)S(N)(=O)=O,178,5162,http://dx.doi.org/10.1021/ci020280x,Bergstrom C. A. S.; Norinder U.; Luthman K.; Artursson P. Molecular Descriptors Influencing Melting Point and Their Role in Classification of Solid Drugs. J. Chem. Inf. Comput. Sci.; (Article); 2003; 43(4); 1177-1349,3,178,179,1
8991,sumatriptan,CNS(=O)(=O)Cc2ccc1[nH]cc(CCN(C)C)c1c2,169,5165,http://dx.doi.org/10.1021/ci020280x,Bergstrom C. A. S.; Norinder U.; Luthman K.; Artursson P. Molecular Descriptors Influencing Melting Point and Their Role in Classification of Solid Drugs. J. Chem. Inf. Comput. Sci.; (Article); 2003; 43(4); 1177-1437,3,169,170,1
3369,"3,5,5-trimethyloxazolidine-2,4-dione",CC1(C(=O)N(C(=O)O1)C)C,47,5374,http://www.alfa.com/en/GP100W.pgm?DSSTK=B24362,Alfa Aesar,3,46,47,1
828,"1-(2-thenoyl)-3,3,3-trifluoroacetone",c1cc(sc1)C(=O)CC(=O)C(F)(F)F,43,5399,http://www.alfa.com/en/GP100W.pgm?DSSTK=A10808,Alfa Aesar,3,42,43,1
8913,urapidil,COc1ccccc1N3CCN(CCCNc2cc(=O)n(C)c(=O)n2C)CC3,156,5437,http://dx.doi.org/10.1021/ci020280x,Bergstrom C. A. S.; Norinder U.; Luthman K.; Artursson P. Molecular Descriptors Influencing Melting Point and Their Role in Classification of Solid Drugs. J. Chem. Inf. Comput. Sci.; (Article); 2003; 43(4); 1177-1359,3,156,157,1
16531,Estriol,Oc3cc4CC[C@@H]2[C@H](CC[C@@]1(C)[C@H]2C[C@@H](O)[C@@H]1O)c4cc3,282,5553,http://www.drugbank.ca/drugs/DB04573,DrugBank,3,281,282,1
27625,"3,4-Dichlorobenzoic acid",C1=CC(=C(C=C1C(=O)O)Cl)Cl,208,5612,http://dx.doi.org/10.1016/j.chemosphere.2013.10.095,Abraham M.H. and Acree Jr. W.E. The solubility of liquid and solid compounds in dry octan-1-ol. Chemosphere (2013),3,207,208,1
15499,4-Nitroquinoline 1-oxide,[O-][N+](=O)c2cc[n+]([O-])c1ccccc12,154,5740,http://msds.chem.ox.ac.uk/,academic website,3,154,155,1
15724,Diethyl sulfate,O=S(=O)(OCC)OCC,-24,5931,http://msds.chem.ox.ac.uk/,academic website,3,-25,-24,1
15743,Dimethyl sulfone,CS(C)(=O)=O,109,5978,http://msds.chem.ox.ac.uk/,academic website,3,109,110,1
14207,p-toluenesulfonamide,Cc1ccc(cc1)S(=O)(N)=O,139,6033,http://www.amazon.com/dp/B003XEQTLE,Aldrich Chemical Company; Aldrich Catalog-Handbook of Fine Chemicals; Milwaukee; WI; 1984.,3,138,139,1
15410,"4,4'-(1,1-Dioxido-3H-2,1-benzoxathiole-3,3-diyl)bis(2-bromo-6-isopropyl-3-methylphenol)",CC(C)c1cc(c(C)c(Br)c1O)C3(OS(=O)(=O)c2ccccc23)c4cc(C(C)C)c(O)c(Br)c4C,200,6208,http://msds.chem.ox.ac.uk/,academic website,3,200,201,1
16009,N-Methylacetamide,CC(=O)NC,27,6334,http://msds.chem.ox.ac.uk/,academic website,3,27,28,1
8196,o-terphenyl,c1ccc(cc1)c2ccccc2c3ccccc3,57,6508,http://www.alfa.com/en/GP100W.pgm?DSSTK=A19680,Alfa Aesar,3,56,57,1
15548,9-Ethyl-9H-carbazole,CCn3c1ccccc1c2ccccc23,69,6575,http://msds.chem.ox.ac.uk/,academic website,3,68,69,1
15069,1-Naphthoic acid,O=C(O)c2cccc1ccccc12,162,6586,http://msds.chem.ox.ac.uk/,academic website,3,161,162,1
15622,Biphenyl-4-amine,Nc1ccc(cc1)c2ccccc2,53,6835,http://msds.chem.ox.ac.uk/,academic website,3,53,54,1
17,"1-phenyl-1,2-ethanediol",c1ccc(cc1)C(CO)O,67,6882,http://www.alfa.com/en/GP100W.pgm?DSSTK=L04551,Alfa Aesar,3,67,68,1
20878,mcpp,Clc1cc(C)c(OC(C)C(=O)O)cc1,94,6886,http://www.srcinc.com/what-we-do/product.aspx?id=133,PHYSPROP,3,94,95,1
14453,benzanilide,O=C(Nc1ccccc1)c2ccccc2,163,6900,http://www.amazon.com/dp/B003XEQTLE,Aldrich Chemical Company; Aldrich Catalog-Handbook of Fine Chemicals; Milwaukee; WI; 1984.,3,163,164,1
15534,6-Nitro-1H-benzimidazole,[O-][N+](=O)c1ccc2ncnc2c1,208,6927,http://msds.chem.ox.ac.uk/,academic website,3,208,209,1
15288,"2-Methylbenzene-1,4-diol",Oc1ccc(O)c(C)c1,129,6983,http://msds.chem.ox.ac.uk/,academic website,3,128,129,1
724,"1,2,3-tribromopropane",C(C(CBr)Br)Br,17,7007,http://www.alfa.com/en/GP100W.pgm?DSSTK=L03752,Alfa Aesar,3,16,17,1
720,"1,2,3-trichloropropane",C(C(CCl)Cl)Cl,-14,7013,http://www.alfa.com/en/GP100W.pgm?DSSTK=L04312,Alfa Aesar,3,-15,-14,1
7715,methylcyclopentane,CC1CCCC1,-143,7024,http://www.alfa.com/en/GP100W.pgm?DSSTK=L03988,Alfa Aesar,3,-143,-142,1
7352,isobutyl isobutyrate,CC(C)COC(=O)C(C)C,-81,7073,http://www.alfa.com/en/GP100W.pgm?DSSTK=L04655,Alfa Aesar,3,-81,-80,1
13812,3-hydroxybenzoic_acid,OC(=O)c1cc(O)ccc1,203,7142,http://www.amazon.com/dp/B003XEQTLE,Aldrich Chemical Company; Aldrich Catalog-Handbook of Fine Chemicals; Milwaukee; WI; 1984.,3,202,203,1
15356,"3,5-Dinitrobenzoic acid",O=[N+]([O-])c1cc(cc(c1)[N+]([O-])=O)C(=O)O,206,7155,http://msds.chem.ox.ac.uk/,academic website,3,205,206,1
15275,2-Methoxy-5-nitroaniline,Nc1cc(ccc1OC)[N+]([O-])=O,118,7167,http://msds.chem.ox.ac.uk/,academic website,3,117,118,1
13960,m-nitrobenzaldehyde,O=[N+]([O-])c1cc(C=O)ccc1,59,7169,http://www.amazon.com/dp/B003XEQTLE,Aldrich Chemical Company; Aldrich Catalog-Handbook of Fine Chemicals; Milwaukee; WI; 1984.,3,58,59,1
14428,ethyl_4-nitrobenzoate,O=[N+]([O-])c1ccc(cc1)C(=O)OCC,58,7177,http://www.amazon.com/dp/B003XEQTLE,Aldrich Chemical Company; Aldrich Catalog-Handbook of Fine Chemicals; Milwaukee; WI; 1984.,3,57,58,1
16008,N-Methyl-4-nitroaniline,CNc1ccc(cc1)[N+]([O-])=O,152,7203,http://msds.chem.ox.ac.uk/,academic website,3,152,153,1
14166,p-dinitrobenzene,O=[N+]([O-])c1ccc(cc1)[N+]([O-])=O,173,7211,http://www.amazon.com/dp/B003XEQTLE,Aldrich Chemical Company; Aldrich Catalog-Handbook of Fine Chemicals; Milwaukee; WI; 1984.,3,173,174,1
15459,4-Ethylmorpholine,CCN1CCOCC1,-63,7244,http://msds.chem.ox.ac.uk/,academic website,3,-64,-63,1
15164,"2,4,6-Tris(allyloxy)-1,3,5-triazine",C=CCOc1nc(nc(OCC=C)n1)OCC=C,26,7274,http://msds.chem.ox.ac.uk/,academic website,3,26,27,1
15394,3-Oxo-N-phenylbutanamide,O=C(Nc1ccccc1)CC(C)=O,86,7311,http://msds.chem.ox.ac.uk/,academic website,3,85,86,1
16026,N-Phenylformamide,O=CNc1ccccc1,47,7388,http://msds.chem.ox.ac.uk/,academic website,3,46,47,1
15938,N-(4-Nitrophenyl)acetamide,O=C(C)Nc1ccc(cc1)[N+]([O-])=O,215,7407,http://msds.chem.ox.ac.uk/,academic website,3,215,216,1
15591,Azepan-2-one,O=C1CCCCCN1,69,7480,http://msds.chem.ox.ac.uk/,academic website,3,69,70,1
15725,"Dihydrofuran-2,5-dione",O=C1CCC(=O)O1,119.5,7634,http://msds.chem.ox.ac.uk/,academic website,3,119,120,1
7744,m-xylene,Cc1cccc(c1)C,-47,7641,http://www.alfa.com/en/GP100W.pgm?DSSTK=L03788,Alfa Aesar,3,-48,-47,1
170,1-hexanethiol,CCCCCCS,-81,7815,http://www.alfa.com/en/GP100W.pgm?DSSTK=L09659,Alfa Aesar,3,-81,-80,1
6949,di-n-propyl sulfide,CCCSCCC,-102,7827,http://www.alfa.com/en/GP100W.pgm?DSSTK=B23155,Alfa Aesar,3,-103,-102,1
278,1-bromodecane,CCCCCCCCCCBr,-30,7881,http://www.alfa.com/en/GP100W.pgm?DSSTK=A11340,Alfa Aesar,3,-30,-29,1
6753,decanal,CCCCCCCCCC=O,-5,7883,http://www.alfa.com/en/GP100W.pgm?DSSTK=A11656,Alfa Aesar,3,-6,-5,1
14546,1-tetradecanol,CCCCCCCCCCCCCCO,40,7917,http://www.amazon.com/dp/B003XEQTLE,Aldrich Chemical Company; Aldrich Catalog-Handbook of Fine Chemicals; Milwaukee; WI; 1984.,3,39,40,1
8265,phenyl salicylate,c1ccc(cc1)OC(=O)c2ccccc2O,43,8058,http://www.alfa.com/en/GP100W.pgm?DSSTK=B20686,Alfa Aesar,3,42,43,1
15592,Azulene,c1cccc2cccc2c1,99.5,8876,http://msds.chem.ox.ac.uk/,academic website,3,99,100,1
16104,Pyrimidine,c1ccncn1,21,8903,http://msds.chem.ox.ac.uk/,academic website,3,21,22,1
8960,mecloqualone,Cc2nc1ccccc1c(=O)n2c3ccccc3Cl,126,9192,http://dx.doi.org/10.1021/ci020280x,Bergstrom C. A. S.; Norinder U.; Luthman K.; Artursson P. Molecular Descriptors Influencing Melting Point and Their Role in Classification of Solid Drugs. J. Chem. Inf. Comput. Sci.; (Article); 2003; 43(4); 1177-1406,3,126,127,1
15232,"2-Chloro-1,3-dinitro-5-(trifluoromethyl)benzene",O=[N+]([O-])c1cc(cc([N+]([O-])=O)c1Cl)C(F)(F)F,57,9426,http://msds.chem.ox.ac.uk/,academic website,3,56,57,1
15074,1-Nitro-4-(trifluoromethyl)benzene,O=[N+]([O-])c1ccc(cc1)C(F)(F)F,39,9438,http://msds.chem.ox.ac.uk/,academic website,3,39,40,1
14170,p-chloroacetanilide,Clc1ccc(NC(C)=O)cc1,178,10411,http://www.amazon.com/dp/B003XEQTLE,Aldrich Chemical Company; Aldrich Catalog-Handbook of Fine Chemicals; Milwaukee; WI; 1984.,3,178,179,1
15019,1-Chloropropane,CCCCl,-122,10437,http://msds.chem.ox.ac.uk/,academic website,3,-123,-122,1
13251,3-chloropropionitrile,ClCCC#N,-50,10498,http://www.amazon.com/dp/B003XEQTLE,Aldrich Chemical Company; Aldrich Catalog-Handbook of Fine Chemicals; Milwaukee; WI; 1984.,3,-51,-50,1
3221,"3,3-dimethylpentane",CCC(C)(C)CC,-135,10755,http://www.alfa.com/en/GP100W.pgm?DSSTK=43706,Alfa Aesar,3,-135,-134,1
8498,tetramethylethylene,CC(=C(C)C)C,-75,10776,http://www.alfa.com/en/GP100W.pgm?DSSTK=A13201,Alfa Aesar,3,-75,-74,1
1203,"2,3,4-trimethylpentane",CC(C)C(C)C(C)C,-110,10795,http://www.alfa.com/en/GP100W.pgm?DSSTK=L08176,Alfa Aesar,3,-110,-109,1
301,1-bromo-2-nitrobenzene,c1ccc(c(c1)[N+](=O)[O-])Br,42,10864,http://www.alfa.com/en/GP100W.pgm?DSSTK=A11686,Alfa Aesar,3,42,43,1
14709,p-bromoiodobenzene,Ic1ccc(Br)cc1,91,11038,http://www.amazon.com/dp/B003XEQTLE,Aldrich Chemical Company; Aldrich Catalog-Handbook of Fine Chemicals; Milwaukee; WI; 1984.,3,91,92,1
2867,2-methyl-2-pentanol,CCCC(C)(C)O,-103,11056,http://www.alfa.com/en/GP100W.pgm?DSSTK=A19090,Alfa Aesar,3,-103,-102,1
13476,1-methylcyclohexanol,CC1(O)CCCCC1,26,11063,http://www.amazon.com/dp/B003XEQTLE,Aldrich Chemical Company; Aldrich Catalog-Handbook of Fine Chemicals; Milwaukee; WI; 1984.,3,25,26,1