key,name,smiles,mpC,csid,link,source,count,min,max,range
8391,reserpine,COc1ccc2c(c1)[nH]c3c2CCN4[C@@H]3C[C@H]5[C@@H](C4)C[C@H]([C@@H]([C@H]5C(=O)OC)OC)OC(=O)c6cc(c(c(c6)OC)OC)OC,265,5566,http://www.alfa.com/en/GP100W.pgm?DSSTK=L03506,Alfa Aesar,3,264.5,265,0.5
15243,2'-Deoxy-5-fluorouridine,FC1=CN(C(=O)NC1=O)[C@H]2C[C@H](O)[C@@H](CO)O2,150.5,5586,http://msds.chem.ox.ac.uk/,academic website,3,150,150.5,0.5
8877,phencarbamide,CCN(CC)CCSC(=O)N(c1ccccc1)c2ccccc2,48,5786,http://dx.doi.org/10.1021/ci020280x,Bergstrom C. A. S.; Norinder U.; Luthman K.; Artursson P. Molecular Descriptors Influencing Melting Point and Their Role in Classification of Solid Drugs. J. Chem. Inf. Comput. Sci.; (Article); 2003; 43(4); 1177-1323,3,48,48.5,0.5
8923,zoxazolamine,Nc2nc1cc(Cl)ccc1o2,184,5878,http://dx.doi.org/10.1021/ci020280x,Bergstrom C. A. S.; Norinder U.; Luthman K.; Artursson P. Molecular Descriptors Influencing Melting Point and Their Role in Classification of Solid Drugs. J. Chem. Inf. Comput. Sci.; (Article); 2003; 43(4); 1177-1369,3,184,184.5,0.5
15894,Methanedithione,S=C=S,-112,6108,http://msds.chem.ox.ac.uk/,academic website,3,-112,-111.5,0.5
3049,2-propanethiol,CC(C)S,-131,6124,http://www.alfa.com/en/GP100W.pgm?DSSTK=43422,Alfa Aesar,3,-131,-130.5,0.5
16006,Nitromethane,[O-][N+](C)=O,-29,6135,http://msds.chem.ox.ac.uk/,academic website,3,-29,-28.5,0.5
16158,Tribromoacetic acid,BrC(Br)(Br)C(=O)O,131.5,6175,http://msds.chem.ox.ac.uk/,academic website,3,131.5,132,0.5
15183,"2,5-Dihydrothiophene 1,1-dioxide",O=S1(=O)CC=CC1,64.5,6253,http://msds.chem.ox.ac.uk/,academic website,3,64.5,65,0.5
13148,acrylamide,C=CC(N)=O,84,6331,http://www.amazon.com/dp/B003XEQTLE,Aldrich Chemical Company; Aldrich Catalog-Handbook of Fine Chemicals; Milwaukee; WI; 1984.,3,84,84.5,0.5
15602,Benzenesulfonyl chloride,O=S(=O)(Cl)c1ccccc1,15,7091,http://msds.chem.ox.ac.uk/,academic website,3,14.5,15,0.5
14009,4-tert-butylcyclohexanone,O=C1CCC(CC1)C(C)(C)C,49,7114,http://www.amazon.com/dp/B003XEQTLE,Aldrich Chemical Company; Aldrich Catalog-Handbook of Fine Chemicals; Milwaukee; WI; 1984.,3,48.5,49,0.5
14465,p-bromoacetophenone,O=C(C)c1ccc(Br)cc1,51,7186,http://www.amazon.com/dp/B003XEQTLE,Aldrich Chemical Company; Aldrich Catalog-Handbook of Fine Chemicals; Milwaukee; WI; 1984.,3,50.5,51,0.5
13560,phenetole,CCOc1ccccc1,-30,7391,http://www.amazon.com/dp/B003XEQTLE,Aldrich Chemical Company; Aldrich Catalog-Handbook of Fine Chemicals; Milwaukee; WI; 1984.,3,-30,-29.5,0.5
2227,2-bromopentane,CCCC(C)Br,-96,7602,http://www.alfa.com/en/GP100W.pgm?DSSTK=A17205,Alfa Aesar,3,-96,-95.5,0.5
16187,Triphenyl phosphate,O=P(Oc1ccccc1)(Oc2ccccc2)Oc3ccccc3,50.5,7988,http://msds.chem.ox.ac.uk/,academic website,3,50,50.5,0.5
15521,5-Methyl-1H-benzotriazole,Cc1cc2nnnc2cc1,81.5,8381,http://msds.chem.ox.ac.uk/,academic website,3,81,81.5,0.5
277,1-bromododecane,CCCCCCCCCCCCBr,-10,8579,http://www.alfa.com/en/GP100W.pgm?DSSTK=A10600,Alfa Aesar,3,-10,-9.5,0.5
15371,3-Chloro-4-fluoroaniline,Nc1cc(Cl)c(F)cc1,45.5,9327,http://msds.chem.ox.ac.uk/,academic website,3,45.5,46,0.5
15168,"2,4-Difluoroaniline",Fc1ccc(N)c(F)c1,-7.5,9328,http://msds.chem.ox.ac.uk/,academic website,3,-8,-7.5,0.5
8845,ketobemidone,CCC(=O)C1(CCN(C)CC1)c2cccc(O)c2,156,9697,http://dx.doi.org/10.1021/ci020280x,Bergstrom C. A. S.; Norinder U.; Luthman K.; Artursson P. Molecular Descriptors Influencing Melting Point and Their Role in Classification of Solid Drugs. J. Chem. Inf. Comput. Sci.; (Article); 2003; 43(4); 1177-1291,3,156,156.5,0.5
8793,chlorazanil,Nc2ncnc(Nc1ccc(Cl)cc1)n2,233,9946,http://dx.doi.org/10.1021/ci020280x,Bergstrom C. A. S.; Norinder U.; Luthman K.; Artursson P. Molecular Descriptors Influencing Melting Point and Their Role in Classification of Solid Drugs. J. Chem. Inf. Comput. Sci.; (Article); 2003; 43(4); 1177-1239,3,233,233.5,0.5
15119,"2,2,4,4,6,6,8,8-Octamethyl-1,3,5,7,2,4,6,8-tetroxatetrasilocane",C[Si]1(C)O[Si](C)(C)O[Si](C)(C)O[Si](C)(C)O1,17.5,10696,http://msds.chem.ox.ac.uk/,academic website,3,17.5,18,0.5
14705,o-bromoiodobenzene,Ic1ccccc1Br,10,10935,http://www.amazon.com/dp/B003XEQTLE,Aldrich Chemical Company; Aldrich Catalog-Handbook of Fine Chemicals; Milwaukee; WI; 1984.,3,9.5,10,0.5
16190,Triphenylphosphine,c1ccccc1P(c2ccccc2)c3ccccc3,80.5,11283,http://msds.chem.ox.ac.uk/,academic website,3,80,80.5,0.5
2938,2-methylstyrene,Cc1ccccc1C=C,-69,11410,http://www.alfa.com/en/GP100W.pgm?DSSTK=A12676,Alfa Aesar,3,-69,-68.5,0.5
2907,2-methylbenzimidazole,Cc1[nH]c2ccccc2n1,176,11489,http://www.alfa.com/en/GP100W.pgm?DSSTK=A17290,Alfa Aesar,3,176,176.5,0.5
3901,3-ethyltoluene,CCc1cccc(c1)C,-96,11603,http://www.alfa.com/en/GP100W.pgm?DSSTK=L18788,Alfa Aesar,3,-96,-95.5,0.5
3001,2-nonanol,CCCCCCCC(C)O,-35,11861,http://www.alfa.com/en/GP100W.pgm?DSSTK=L06310,Alfa Aesar,3,-35.5,-35,0.5
13757,"1,6-dicyanohexane",N#CCCCCCCC#N,-3,11879,http://www.amazon.com/dp/B003XEQTLE,Aldrich Chemical Company; Aldrich Catalog-Handbook of Fine Chemicals; Milwaukee; WI; 1984.,3,-3.5,-3,0.5
14602,1-pentadecanol,CCCCCCCCCCCCCCCO,46,11891,http://www.amazon.com/dp/B003XEQTLE,Aldrich Chemical Company; Aldrich Catalog-Handbook of Fine Chemicals; Milwaukee; WI; 1984.,3,45.5,46,0.5
4102,3-methylbiphenyl,Cc1cccc(c1)c2ccccc2,5,12045,http://www.alfa.com/en/GP100W.pgm?DSSTK=L01006,Alfa Aesar,3,4.5,5,0.5
2557,2-ethyl-1-butene,CCC(=C)CC,-132,12430,http://www.alfa.com/en/GP100W.pgm?DSSTK=L11553,Alfa Aesar,3,-132,-131.5,0.5
14929,"1,2-Oxathiolane 2,2-dioxide",O=S1(=O)CCCO1,32,13626,http://msds.chem.ox.ac.uk/,academic website,3,31.5,32,0.5
8964,methdilazine,CN1CCC(C1)CN3c2ccccc2Sc4ccccc34,87,14009,http://dx.doi.org/10.1021/ci020280x,Bergstrom C. A. S.; Norinder U.; Luthman K.; Artursson P. Molecular Descriptors Influencing Melting Point and Their Role in Classification of Solid Drugs. J. Chem. Inf. Comput. Sci.; (Article); 2003; 43(4); 1177-1410,3,87,87.5,0.5
13752,b-pinene,CC2(C)C1CCC(=C)C2C1,-61,14198,http://www.amazon.com/dp/B003XEQTLE,Aldrich Chemical Company; Aldrich Catalog-Handbook of Fine Chemicals; Milwaukee; WI; 1984.,3,-61.5,-61,0.5
8893,propoxyphene,CCC(=O)OC(Cc1ccccc1)(C(C)CN(C)C)c2ccccc2,75,14592,http://dx.doi.org/10.1021/ci020280x,Bergstrom C. A. S.; Norinder U.; Luthman K.; Artursson P. Molecular Descriptors Influencing Melting Point and Their Role in Classification of Solid Drugs. J. Chem. Inf. Comput. Sci.; (Article); 2003; 43(4); 1177-1339,3,75,75.5,0.5
8772,azacyclonol,OC(C1CCNCC1)(c2ccccc2)c3ccccc3,160,14952,http://dx.doi.org/10.1021/ci020280x,Bergstrom C. A. S.; Norinder U.; Luthman K.; Artursson P. Molecular Descriptors Influencing Melting Point and Their Role in Classification of Solid Drugs. J. Chem. Inf. Comput. Sci.; (Article); 2003; 43(4); 1177-1218,3,160,160.5,0.5
15165,"2,4-Dichloro-1-(4-nitrophenoxy)benzene",Clc2cc(Cl)ccc2Oc1ccc(cc1)[N+]([O-])=O,70.5,15010,http://msds.chem.ox.ac.uk/,academic website,3,70,70.5,0.5
4156,3-nitrophenylacetic acid,c1cc(cc(c1)[N+](=O)[O-])CC(=O)O,119,15089,http://www.alfa.com/en/GP100W.pgm?DSSTK=B21540,Alfa Aesar,3,118.5,119,0.5
14302,o-bromobenzonitrile,N#Cc1ccccc1Br,55,15440,http://www.amazon.com/dp/B003XEQTLE,Aldrich Chemical Company; Aldrich Catalog-Handbook of Fine Chemicals; Milwaukee; WI; 1984.,3,55,55.5,0.5
8131,N-pentylcyclohexane,CCCCCC1CCCCC1,-58,19110,http://www.alfa.com/en/GP100W.pgm?DSSTK=B21326,Alfa Aesar,3,-58,-57.5,0.5
14299,m-bromobenzonitrile,N#Cc1cc(Br)ccc1,39,21865,http://www.amazon.com/dp/B003XEQTLE,Aldrich Chemical Company; Aldrich Catalog-Handbook of Fine Chemicals; Milwaukee; WI; 1984.,3,39,39.5,0.5
7090,ethyl 3-methyl-2-thionoimidazoline-1-carboxylate,CCOC(=O)n1ccn(c1=S)C,124,28829,http://www.alfa.com/en/GP100W.pgm?DSSTK=L08218,Alfa Aesar,3,123.5,124,0.5
8863,morazone,CC1C(OCCN1Cc3c(C)n(C)n(c2ccccc2)c3=O)c4ccccc4,149,36216,http://dx.doi.org/10.1021/ci020280x,Bergstrom C. A. S.; Norinder U.; Luthman K.; Artursson P. Molecular Descriptors Influencing Melting Point and Their Role in Classification of Solid Drugs. J. Chem. Inf. Comput. Sci.; (Article); 2003; 43(4); 1177-1309,3,149,149.5,0.5
17297,fenoxycarb,O=C(OCC)NCCOc1ccc(cc1)Oc2ccccc2,53.5,46739,http://dx.doi.org/10.1021/ci700307p,Hughes LD; Palmer DS; Nigsch F and Mitchell JBO. 2008 Why are some properties more difficult to predict than others? A study of QSPR models of solubility; melting point and LogP. J. Chem. Inf. Model. 2008. 48 (1). pp 220?444,3,53,53.5,0.5
13791,p-hydroxybenzamide,O=C(N)c1ccc(O)cc1,161,58563,http://www.amazon.com/dp/B003XEQTLE,Aldrich Chemical Company; Aldrich Catalog-Handbook of Fine Chemicals; Milwaukee; WI; 1984.,3,161,161.5,0.5
14627,diethyl_phenylmalonate,O=C(OCC)C(C(=O)OCC)c1ccccc1,16,59885,http://www.amazon.com/dp/B003XEQTLE,Aldrich Chemical Company; Aldrich Catalog-Handbook of Fine Chemicals; Milwaukee; WI; 1984.,3,16,16.5,0.5
8879,phenocoll,CCOc1ccc(NC(=O)CN)cc1,101,60263,http://dx.doi.org/10.1021/ci020280x,Bergstrom C. A. S.; Norinder U.; Luthman K.; Artursson P. Molecular Descriptors Influencing Melting Point and Their Role in Classification of Solid Drugs. J. Chem. Inf. Comput. Sci.; (Article); 2003; 43(4); 1177-1325,3,100.5,101,0.5
15258,2-Fluorobiphenyl,Fc2ccccc2c1ccccc1,73.5,60900,http://msds.chem.ox.ac.uk/,academic website,3,73.5,74,0.5
15107,2-(Trifluoromethyl)phenol,FC(F)(F)c1ccccc1O,45.5,61273,http://msds.chem.ox.ac.uk/,academic website,3,45.5,46,0.5
122,1-methylcyclohexanecarboxylic acid,CC1(CCCCC1)C(=O)O,38,63909,http://www.alfa.com/en/GP100W.pgm?DSSTK=B21713,Alfa Aesar,3,37.5,38,0.5
8864,moxaverine,CCc3cc1cc(OC)c(OC)cc1c(Cc2ccccc2)n3,78,64045,http://dx.doi.org/10.1021/ci020280x,Bergstrom C. A. S.; Norinder U.; Luthman K.; Artursson P. Molecular Descriptors Influencing Melting Point and Their Role in Classification of Solid Drugs. J. Chem. Inf. Comput. Sci.; (Article); 2003; 43(4); 1177-1310,3,78,78.5,0.5
8766,amphotalide,Nc3ccc(OCCCCCN2C(=O)c1ccccc1C2=O)cc3,113,64830,http://dx.doi.org/10.1021/ci020280x,Bergstrom C. A. S.; Norinder U.; Luthman K.; Artursson P. Molecular Descriptors Influencing Melting Point and Their Role in Classification of Solid Drugs. J. Chem. Inf. Comput. Sci.; (Article); 2003; 43(4); 1177-1212,3,113,113.5,0.5
14978,"1,8-Dibromooctane",BrCCCCCCCCBr,15.5,70682,http://msds.chem.ox.ac.uk/,academic website,3,15.5,16,0.5
8880,phenopyrazone,O=C1NN(C(=O)C1c2ccccc2)c3ccccc3,233,83912,http://dx.doi.org/10.1021/ci020280x,Bergstrom C. A. S.; Norinder U.; Luthman K.; Artursson P. Molecular Descriptors Influencing Melting Point and Their Role in Classification of Solid Drugs. J. Chem. Inf. Comput. Sci.; (Article); 2003; 43(4); 1177-1326,3,233,233.5,0.5
8937,erythrocentaurin,c1cc(C=O)c2CCOC(c2c1)=O,140,165975,http://dx.doi.org/10.1021/ci020280x,Bergstrom C. A. S.; Norinder U.; Luthman K.; Artursson P. Molecular Descriptors Influencing Melting Point and Their Role in Classification of Solid Drugs. J. Chem. Inf. Comput. Sci.; (Article); 2003; 43(4); 1177-1383,3,140,140.5,0.5
6253,8-bromooctanoic acid,C(CCCC(=O)O)CCCBr,39,477171,http://www.alfa.com/en/GP100W.pgm?DSSTK=B25575,Alfa Aesar,3,38.5,39,0.5
8551,"trans,trans-2,4-hexadien-1-ol",C/C=C/C=C/CO,31,556559,http://www.alfa.com/en/GP100W.pgm?DSSTK=A12660,Alfa Aesar,3,30.5,31,0.5
14791,"(2E,4E)-Hexa-2,4-dienoic acid",CC=CC=CC(=O)O,134,558605,http://msds.chem.ox.ac.uk/,academic website,3,134,134.5,0.5
8856,methallatal,C1(=O)C(CC)(CC(=C)C)C(=O)NC(=S)N1,160,2297301,http://dx.doi.org/10.1021/ci020280x,Bergstrom C. A. S.; Norinder U.; Luthman K.; Artursson P. Molecular Descriptors Influencing Melting Point and Their Role in Classification of Solid Drugs. J. Chem. Inf. Comput. Sci.; (Article); 2003; 43(4); 1177-1302,3,160,160.5,0.5
8816,febantel,COCC(=O)Nc2cc(Sc1ccccc1)ccc2N=C(NC(=O)OC)NC(=O)OC,129,4514715,http://dx.doi.org/10.1021/ci020280x,Bergstrom C. A. S.; Norinder U.; Luthman K.; Artursson P. Molecular Descriptors Influencing Melting Point and Their Role in Classification of Solid Drugs. J. Chem. Inf. Comput. Sci.; (Article); 2003; 43(4); 1177-1262,3,129,129.5,0.5
27730,a-hexachlorocyclohexane,[C@@H]1([C@@H]([C@@H]([C@H]([C@H]([C@@H]1Cl)Cl)Cl)Cl)Cl)Cl,159,10468511,http://dx.doi.org/10.1016/j.chemosphere.2013.10.095,Abraham M.H. and Acree Jr. W.E. The solubility of liquid and solid compounds in dry octan-1-ol. Chemosphere (2013),3,159,159.5,0.5
17304,g-bhc(lindane),Cl[C@@H]1[C@@H](Cl)[C@@H](Cl)[C@H](Cl)[C@@H](Cl)[C@H]1Cl,112.5,10481896,http://dx.doi.org/10.1021/ci700307p,Hughes LD; Palmer DS; Nigsch F and Mitchell JBO. 2008 Why are some properties more difficult to predict than others? A study of QSPR models of solubility; melting point and LogP. J. Chem. Inf. Model. 2008. 48 (1). pp 220?451,3,112.5,113,0.5
13945,p-methoxyacetophenone,COc1ccc(cc1)C(C)=O,38,13835344,http://www.amazon.com/dp/B003XEQTLE,Aldrich Chemical Company; Aldrich Catalog-Handbook of Fine Chemicals; Milwaukee; WI; 1984.,3,38,38.5,0.5
15106,2-(Methylamino)ethanol,CNCCO,-4.5,13836021,http://msds.chem.ox.ac.uk/,academic website,3,-5,-4.5,0.5
13941,4-ethoxybenzaldehyde,CCOc1ccc(cc1)C=O,14,21105889,http://www.amazon.com/dp/B003XEQTLE,Aldrich Chemical Company; Aldrich Catalog-Handbook of Fine Chemicals; Milwaukee; WI; 1984.,3,13.5,14,0.5
15116,"2,2,2-Trifluoroethanol",FC(F)(F)CO,-43.5,21106169,http://msds.chem.ox.ac.uk/,academic website,3,-44,-43.5,0.5
14408,"2,3-dichloronitrobenzene",Clc1c(cccc1Cl)[N+]([O-])=O,62,21106574,http://www.amazon.com/dp/B003XEQTLE,Aldrich Chemical Company; Aldrich Catalog-Handbook of Fine Chemicals; Milwaukee; WI; 1984.,3,61.5,62,0.5
13686,3-cyanobenzaldehyde,O=Cc1cccc(C#N)c1,77,21112367,http://www.amazon.com/dp/B003XEQTLE,Aldrich Chemical Company; Aldrich Catalog-Handbook of Fine Chemicals; Milwaukee; WI; 1984.,3,76.5,77,0.5
8781,bupivacaine,CCCCN1CCCCC1C(=O)Nc2c(C)cccc2C,107,2380,http://dx.doi.org/10.1021/ci020280x,Bergstrom C. A. S.; Norinder U.; Luthman K.; Artursson P. Molecular Descriptors Influencing Melting Point and Their Role in Classification of Solid Drugs. J. Chem. Inf. Comput. Sci.; (Article); 2003; 43(4); 1177-1227,4,107,107.5,0.5
8815,famotidine,NC(N)=Nc1nc(CSCCC(N)=NS(N)(=O)=O)cs1,163,3208,http://dx.doi.org/10.1021/ci020280x,Bergstrom C. A. S.; Norinder U.; Luthman K.; Artursson P. Molecular Descriptors Influencing Melting Point and Their Role in Classification of Solid Drugs. J. Chem. Inf. Comput. Sci.; (Article); 2003; 43(4); 1177-1261,4,163,163.5,0.5
28158,Heptachlor,C1=CC(C2C1C3(C(=C(C2(C3(Cl)Cl)Cl)Cl)Cl)Cl)Cl,95,3463,http://dx.doi.org/10.1016/j.chemosphere.2013.10.095,Abraham M.H. and Acree Jr. W.E. The solubility of liquid and solid compounds in dry octan-1-ol. Chemosphere (2013),4,95,95.5,0.5
16801,Pentobarbital,O=C1NC(=O)NC(=O)C1(CC)C(C)CCC,129.5,4575,http://www.drugbank.ca/drugs/DB00312,DrugBank,4,129.5,130,0.5
8982,primidone,CCC1(C(=O)NCNC1=O)c2ccccc2,281,4740,http://dx.doi.org/10.1021/ci020280x,Bergstrom C. A. S.; Norinder U.; Luthman K.; Artursson P. Molecular Descriptors Influencing Melting Point and Their Role in Classification of Solid Drugs. J. Chem. Inf. Comput. Sci.; (Article); 2003; 43(4); 1177-1428,4,281,281.5,0.5
15941,N-(Butylcarbamoyl)-4-methylbenzenesulfonamide,Cc1ccc(cc1)S(=O)(=O)NC(=O)NCCCC,128.5,5304,http://msds.chem.ox.ac.uk/,academic website,4,128.5,129,0.5
8921,zomepirac,Cc1cc(CC(O)=O)n(C)c1C(=O)c2ccc(Cl)cc2,178,5531,http://dx.doi.org/10.1021/ci020280x,Bergstrom C. A. S.; Norinder U.; Luthman K.; Artursson P. Molecular Descriptors Influencing Melting Point and Their Role in Classification of Solid Drugs. J. Chem. Inf. Comput. Sci.; (Article); 2003; 43(4); 1177-1367,4,178,178.5,0.5
28013,Deoxycorticosterone,C[C@]12CC[C@H]3[C@H]([C@@H]1CC[C@@H]2C(=O)CO)CCC4=CC(=O)CC[C@]34C,142,5932,http://dx.doi.org/10.1016/j.chemosphere.2013.10.095,Abraham M.H. and Acree Jr. W.E. The solubility of liquid and solid compounds in dry octan-1-ol. Chemosphere (2013),4,141.5,142,0.5
15307,2-Methylpropanenitrile,CC(C)C#N,-72,6311,http://msds.chem.ox.ac.uk/,academic website,4,-72,-71.5,0.5
15014,1-Chloroacetone,CC(=O)CCl,-44.5,6323,http://msds.chem.ox.ac.uk/,academic website,4,-45,-44.5,0.5
27514,2-Ethylanthraquinone,CCC1=CC2=C(C=C1)C(=O)C3=CC=CC=C3C2=O,109,6514,http://dx.doi.org/10.1016/j.chemosphere.2013.10.095,Abraham M.H. and Acree Jr. W.E. The solubility of liquid and solid compounds in dry octan-1-ol. Chemosphere (2013),4,109,109.5,0.5
15584,Anisole,COc1ccccc1,-37,7238,http://msds.chem.ox.ac.uk/,academic website,4,-37.5,-37,0.5
15685,Cyclohexene,C1C=CCCC1,-104,7788,http://msds.chem.ox.ac.uk/,academic website,4,-104,-103.5,0.5
15919,Methyl propionate,CCC(=O)OC,-88,10653,http://msds.chem.ox.ac.uk/,academic website,4,-88,-87.5,0.5
16138,Tetradecane,CCCCCCCCCCCCCC,5.5,11883,http://msds.chem.ox.ac.uk/,academic website,4,5.5,6,0.5
15470,4-Hydroxybenzonitrile,N#Cc1ccc(O)cc1,111.5,12478,http://msds.chem.ox.ac.uk/,academic website,4,111.5,112,0.5
8861,molindone,CCc2c(C)[nH]c3CCC(CN1CCOCC1)C(=O)c23,180,22342,http://dx.doi.org/10.1021/ci020280x,Bergstrom C. A. S.; Norinder U.; Luthman K.; Artursson P. Molecular Descriptors Influencing Melting Point and Their Role in Classification of Solid Drugs. J. Chem. Inf. Comput. Sci.; (Article); 2003; 43(4); 1177-1307,4,180,180.5,0.5
28268,Metoxuron,Clc1cc(ccc1OC)NC(=O)N(C)C,127,27749,http://dx.doi.org/10.1016/j.chemosphere.2013.10.095,Abraham M.H. and Acree Jr. W.E. The solubility of liquid and solid compounds in dry octan-1-ol. Chemosphere (2013),4,126.5,127,0.5
28470,Profluralin,CCCN(CC1CC1)C2=C(C=C(C=C2[N+](=O)[O-])C(F)(F)F)[N+](=O)[O-],32,30913,http://dx.doi.org/10.1016/j.chemosphere.2013.10.095,Abraham M.H. and Acree Jr. W.E. The solubility of liquid and solid compounds in dry octan-1-ol. Chemosphere (2013),4,32,32.5,0.5
8968,moricizine,CCOC(=O)Nc4ccc3Sc1ccccc1N(C(=O)CCN2CCOCC2)c3c4,156,31872,http://dx.doi.org/10.1021/ci020280x,Bergstrom C. A. S.; Norinder U.; Luthman K.; Artursson P. Molecular Descriptors Influencing Melting Point and Their Role in Classification of Solid Drugs. J. Chem. Inf. Comput. Sci.; (Article); 2003; 43(4); 1177-1414,4,156,156.5,0.5
15645,"Butane-1,4-diamine",NCCCCN,27.5,13837702,http://msds.chem.ox.ac.uk/,academic website,4,27,27.5,0.5
15740,Dimethyl succinate,COC(=O)CCC(=O)OC,19.5,13848341,http://msds.chem.ox.ac.uk/,academic website,4,19,19.5,0.5
15900,Methyl 2-aminobenzoate,Nc1ccccc1C(=O)OC,24,13858096,http://msds.chem.ox.ac.uk/,academic website,4,24,24.5,0.5
15467,4-Hydroxy-3-methoxybenzaldehyde,Oc1ccc(cc1OC)C=O,82,13860434,http://msds.chem.ox.ac.uk/,academic website,4,81.5,82,0.5
15062,1-Methyl-3-nitrobenzene,Cc1cc(ccc1)[N+](=O)[O-],15.5,21106146,http://msds.chem.ox.ac.uk/,academic website,4,15.5,16,0.5
15744,Dimethyl sulfoxide,CS(C)=O,18.4,659,http://msds.chem.ox.ac.uk/,academic website,5,18,18.5,0.5
15998,Nicotinamide,NC(=O)c1cccnc1,130,911,http://msds.chem.ox.ac.uk/,academic website,5,129.5,130,0.5
15025,"1-Ethyl-7-methyl-4-oxo-1,4-dihydro-1,8-naphthyridine-3-carboxylic acid",O=C(O)C2=CN(CC)c1nc(C)ccc1C2=O,229.5,4268,http://msds.chem.ox.ac.uk/,academic website,5,229,229.5,0.5
8872,oxazepam,OC3N=C(c1ccccc1)c2cc(Cl)ccc2NC3=O,205,4455,http://dx.doi.org/10.1021/ci020280x,Bergstrom C. A. S.; Norinder U.; Luthman K.; Artursson P. Molecular Descriptors Influencing Melting Point and Their Role in Classification of Solid Drugs. J. Chem. Inf. Comput. Sci.; (Article); 2003; 43(4); 1177-1318,5,205,205.5,0.5
27773,Alclofenac,C=CCOC1=C(C=C(C=C1)CC(=O)O)Cl,92,28714,http://dx.doi.org/10.1016/j.chemosphere.2013.10.095,Abraham M.H. and Acree Jr. W.E. The solubility of liquid and solid compounds in dry octan-1-ol. Chemosphere (2013),5,92,92.5,0.5
28217,Lovastatin,CC[C@H](C)C(=O)O[C@H]1C[C@H](C=C2[C@H]1[C@H]([C@H](C=C2)C)CC[C@@H]3C[C@H](CC(=O)O3)O)C,175,48085,http://dx.doi.org/10.1016/j.chemosphere.2013.10.095,Abraham M.H. and Acree Jr. W.E. The solubility of liquid and solid compounds in dry octan-1-ol. Chemosphere (2013),5,174.5,175,0.5
14787,(2E)-But-2-enal,CC=CC=O,-76,394562,http://msds.chem.ox.ac.uk/,academic website,5,-76.5,-76,0.5