key,name,smiles,mpC,csid,link,source,count,min,max,range
6954,diphenic acid,c1ccc(c(c1)c2ccccc2C(=O)O)C(=O)O,229,9795,http://www.alfa.com/en/GP100W.pgm?DSSTK=A15863,Alfa Aesar,2,229,233.5,4.5
15085,"2-(2,4,5,7-Tetrabromo-6-hydroxy-3-oxo-3H-xanthen-9-yl)benzoic acid",O=C(O)c4ccccc4C=2c3cc(Br)c(O)c(Br)c3OC=1C=2C=C(Br)C(=O)C=1Br,300,10581,http://msds.chem.ox.ac.uk/,academic website,2,295.5,300,4.5
7268,glycerol tripalmitate,CCCCCCCCCCCCCCCC(=O)OCC(COC(=O)CCCCCCCCCCCCCCC)OC(=O)CCCCCCCCCCCCCCC,62,10674,http://www.alfa.com/en/GP100W.pgm?DSSTK=A10922,Alfa Aesar,2,62,66.5,4.5
422,"1,7-heptanediol",C(CCCO)CCCO,18,11875,http://www.alfa.com/en/GP100W.pgm?DSSTK=L06384,Alfa Aesar,2,18,22.5,4.5
18488,"bicyclo 2.2.1 heptan-2-ol, 1,3,3-trimethyl-, (1r",CC12CCC(C1)C(C)(C)C2O,48,14665,http://www.srcinc.com/what-we-do/product.aspx?id=133,PHYSPROP,2,43.5,48,4.5
7899,N-acetylmorpholine,CC(=O)N1CCOCC1,10,14787,http://www.alfa.com/en/GP100W.pgm?DSSTK=B24120,Alfa Aesar,2,10,14.5,4.5
14661,1-octadecyne,CCCCCCCCCCCCCCCCC#C,27,62633,http://www.amazon.com/dp/B002IYRJWI,American Petroleum Institute. Research Project 44; Selected Values of Properties of Hydrocarbons and Related Compounds. Texas A & M University; College Station; TX; 1973.,2,22.5,27,4.5
12749,"Tricyclo[6.2.1.0~2,7~]undeca-4,9-diene-3,6-dione",O=C1C=CC(=O)C2C3C=CC(C3)C12,73,71481,http://dx.doi.org/10.1021/ci0500132,Karthikeyan M.; Glen R.C.; Bender A. General melting point prediction based on a diverse compound dataset and artificial neural networks. J. Chem. Inf. Model.; 2005; 45(3); 581-4331,2,73,77.5,4.5
6841,diethyl formamidomalonate,CCOC(=O)C(C(=O)OCC)NC=O,53,72806,http://www.alfa.com/en/GP100W.pgm?DSSTK=L01189,Alfa Aesar,2,48.5,53,4.5
2805,2-mercaptoimidazole,c1cnc([nH]1)S,225,1013196,http://www.alfa.com/en/GP100W.pgm?DSSTK=L01346,Alfa Aesar,2,225,229.5,4.5
17127,cocaine,CN3[C@H]1CC[C@@H]3[C@H]([C@H](C1)OC(=O)c2ccccc2)C(=O)OC,98,10194104,http://dx.doi.org/10.1021/ci700307p,Hughes LD; Palmer DS; Nigsch F and Mitchell JBO. 2008 Why are some properties more difficult to predict than others? A study of QSPR models of solubility; melting point and LogP. J. Chem. Inf. Model. 2008. 48 (1). pp 220?274,2,93.5,98,4.5
2221,2-bromoisobutyric acid,CC(C)(C(=O)O)Br,44,10790335,http://www.alfa.com/en/GP100W.pgm?DSSTK=A15854,Alfa Aesar,2,44,48.5,4.5
6577,bromochloroacetic acid,C(C(=O)O)(Cl)Br,27,11307583,http://www.alfa.com/en/GP100W.pgm?DSSTK=L15720,Alfa Aesar,2,27,31.5,4.5
4443,"4,4'-methylenebis(n,n-dimethylaniline)",CN(C)c1ccc(cc1)Cc2ccc(cc2)N(C)C,87,21106506,http://www.alfa.com/en/GP100W.pgm?DSSTK=A18466,Alfa Aesar,2,87,91.5,4.5
7864,"N,N-dimethylglycine",CN(C)CC(=O)O,181,653,http://www.alfa.com/en/GP100W.pgm?DSSTK=A19670,Alfa Aesar,3,181,185.5,4.5
6400,azelaic acid,C(CCCC(=O)O)CCCC(=O)O,102,2179,http://www.alfa.com/en/GP100W.pgm?DSSTK=42587,Alfa Aesar,3,102,106.5,4.5
8940,fentanyl,CCC(=O)N(C1CCN(CC1)CCc2ccccc2)c3ccccc3,83,3228,http://dx.doi.org/10.1021/ci020280x,Bergstrom C. A. S.; Norinder U.; Luthman K.; Artursson P. Molecular Descriptors Influencing Melting Point and Their Role in Classification of Solid Drugs. J. Chem. Inf. Comput. Sci.; (Article); 2003; 43(4); 1177-1386,3,83,87.5,4.5
15083,"2-(1,3-Thiazol-4-yl)-1H-benzimidazole",n1c3ccccc3nc1c2cscn2,304.5,5237,http://msds.chem.ox.ac.uk/,academic website,3,300,304.5,4.5
20565,"piperazine, 2,5-dimethyl-, cis-",CC1CNC(C)CN1,114,7528,http://www.srcinc.com/what-we-do/product.aspx?id=133,PHYSPROP,3,114,118.5,4.5
15158,"2,4,6-Trichloroaniline",Clc1cc(Cl)cc(Cl)c1N,74,11961,http://msds.chem.ox.ac.uk/,academic website,3,74,78.5,4.5
2474,2-chloroethylphosphonic acid,C(CCl)P(=O)(O)O,70,26031,http://www.alfa.com/en/GP100W.pgm?DSSTK=L04884,Alfa Aesar,3,70,74.5,4.5
15555,9H-Xanthen-9-ol,OC1c3ccccc3Oc2ccccc12,123,65693,http://msds.chem.ox.ac.uk/,academic website,3,123,127.5,4.5
8377,quinidine,COc1ccc2c(c1)c(ccn2)[C@@H]([C@H]3C[C@@H]4CC[N@]3C[C@@H]4C=C)O,170,389880,http://www.alfa.com/en/GP100W.pgm?DSSTK=A12559,Alfa Aesar,3,170,174.5,4.5
15222,2-Amino-2-methylpropan-1-ol,CC(C)(N)CO,30,13835861,http://msds.chem.ox.ac.uk/,academic website,3,25.5,30,4.5
14159,"1,2,3-trimethoxybenzene",COc1c(cccc1OC)OC,45,21111804,http://www.amazon.com/dp/B003XEQTLE,Aldrich Chemical Company; Aldrich Catalog-Handbook of Fine Chemicals; Milwaukee; WI; 1984.,3,44,48.5,4.5
13420,hydroquinone,Oc1ccc(O)cc1,175,764,http://www.amazon.com/dp/B003XEQTLE,Aldrich Chemical Company; Aldrich Catalog-Handbook of Fine Chemicals; Milwaukee; WI; 1984.,4,170.5,175,4.5
16115,Salicylonitrile,N#Cc1ccccc1O,93.5,11413,http://msds.chem.ox.ac.uk/,academic website,4,93.5,98,4.5
2469,2-chloroethanol,C(CCl)O,-63,21106015,http://www.alfa.com/en/GP100W.pgm?DSSTK=36636,Alfa Aesar,4,-67.5,-63,4.5
27806,Atrazine,CC/N=C/1\N/C(=N/C(C)C)/NC(=N1)Cl,177,2169,http://dx.doi.org/10.1016/j.chemosphere.2013.10.095,Abraham M.H. and Acree Jr. W.E. The solubility of liquid and solid compounds in dry octan-1-ol. Chemosphere (2013),5,172.5,177,4.5
28547,Sulfamethoxazole,CC1=CC(=NO1)NS(=O)(=O)C2=CC=C(C=C2)N,168,5138,http://dx.doi.org/10.1016/j.chemosphere.2013.10.095,Abraham M.H. and Acree Jr. W.E. The solubility of liquid and solid compounds in dry octan-1-ol. Chemosphere (2013),6,167,171.5,4.5
15271,2-Iodophenol,Ic1ccccc1O,38.5,10328,http://msds.chem.ox.ac.uk/,academic website,6,38.5,43,4.5
28418,Perylene,C1=CC2=C3C(=C1)C4=CC=CC5=C4C(=CC=C5)C3=CC=C2,278,8788,http://dx.doi.org/10.1016/j.chemosphere.2013.10.095,Abraham M.H. and Acree Jr. W.E. The solubility of liquid and solid compounds in dry octan-1-ol. Chemosphere (2013),7,273.5,278,4.5
28587,Theophylline,CN1C2=C(C(=O)N(C1=O)C)N=CN2,274,2068,http://dx.doi.org/10.1016/j.chemosphere.2013.10.095,Abraham M.H. and Acree Jr. W.E. The solubility of liquid and solid compounds in dry octan-1-ol. Chemosphere (2013),9,270,274.5,4.5
28114,Fluorene,C1C2=CC=CC=C2C3=CC=CC=C31,116,6592,http://dx.doi.org/10.1016/j.chemosphere.2013.10.095,Abraham M.H. and Acree Jr. W.E. The solubility of liquid and solid compounds in dry octan-1-ol. Chemosphere (2013),9,112,116.5,4.5
15565,Acetaldehyde,CC=O,-124,172,http://msds.chem.ox.ac.uk/,academic website,4,-128,-123.37,4.63
22668,triadimenol,CC(C)(C)C(O)C(Oc1ccc(Cl)cc1)n2cncn2,135.5,37749,http://www.srcinc.com/what-we-do/product.aspx?id=133,PHYSPROP,3,133.5,138.2,4.7
16181,Trimethyl borate,COB(OC)OC,-34,8157,http://msds.chem.ox.ac.uk/,academic website,4,-34,-29.3,4.7
28124,Flurbiprofen,CC(C1=CC(=C(C=C1)C2=CC=CC=C2)F)C(=O)O,114,3277,http://dx.doi.org/10.1016/j.chemosphere.2013.10.095,Abraham M.H. and Acree Jr. W.E. The solubility of liquid and solid compounds in dry octan-1-ol. Chemosphere (2013),11,110,114.7,4.7
246,1-chloro-4-fluorobenzene,c1cc(ccc1F)Cl,-22,9228,http://www.alfa.com/en/GP100W.pgm?DSSTK=A13690,Alfa Aesar,2,-26.8,-22,4.8
5249,4-hydroxypyridine,c1cnccc1O,145,11787,http://www.alfa.com/en/GP100W.pgm?DSSTK=A14586,Alfa Aesar,2,145,149.8,4.8
15003,1-Chloro-2-(2-chloroethoxy)ethane,ClCCOCCCl,-47,21106016,http://msds.chem.ox.ac.uk/,academic website,3,-51.9,-47,4.9
15811,Fluoroform,FC(F)F,-160,21106179,http://msds.chem.ox.ac.uk/,academic website,2,-160,-155.1,4.9
15683,Cyclohexanol,OC1CCCCC1,21,7678,http://msds.chem.ox.ac.uk/,academic website,5,21,25.93,4.93
5664,"5,7-dibromo-8-hydroxyquinoline",c1cc2c(cc(c(c2nc1)O)Br)Br,201,2359,http://www.alfa.com/en/GP100W.pgm?DSSTK=A14284,Alfa Aesar,2,196,201,5
17200,secobarbital,O=C1NC(=O)NC(=O)C1(CC=C)C(C)CCC,95,5005,http://dx.doi.org/10.1021/ci700307p,Hughes LD; Palmer DS; Nigsch F and Mitchell JBO. 2008 Why are some properties more difficult to predict than others? A study of QSPR models of solubility; melting point and LogP. J. Chem. Inf. Model. 2008. 48 (1). pp 220?347,2,95,100,5
16550,L-Histidine,N[C@@H](Cc1cncn1)C(=O)O,282,6038,http://www.drugbank.ca/drugs/DB00117,DrugBank,2,282,287,5
16131,tert-Butyl hydroperoxide,CC(C)(C)OO,-3,6170,http://msds.chem.ox.ac.uk/,academic website,2,-8,-3,5
15741,Dimethyl sulfate,O=S(=O)(OC)OC,-32,6252,http://msds.chem.ox.ac.uk/,academic website,2,-32,-27,5
2904,2-methylanthraquinone,Cc1ccc2c(c1)C(=O)c3ccccc3C2=O,172,6515,http://www.alfa.com/en/GP100W.pgm?DSSTK=A14502,Alfa Aesar,2,172,177,5
14771,"(2,3,6-Trichlorophenyl)acetic acid",Clc1c(CC(=O)O)c(Cl)ccc1Cl,156,6546,http://msds.chem.ox.ac.uk/,academic website,2,156,161,5
7915,naphthalene-2-sulfonyl chloride,c1ccc2cc(ccc2c1)S(=O)(=O)Cl,76,6858,http://www.alfa.com/en/GP100W.pgm?DSSTK=A16872,Alfa Aesar,2,76,81,5
6871,diglycolic acid,C(C(=O)O)OCC(=O)O,143,7797,http://www.alfa.com/en/GP100W.pgm?DSSTK=B23758,Alfa Aesar,2,143,148,5
7860,"N,N-dimethyldodecylamine",CCCCCCCCCCCCN(C)C,-20,7876,http://www.alfa.com/en/GP100W.pgm?DSSTK=B24145,Alfa Aesar,2,-20,-15,5
14146,isophthalic_acid,OC(=O)c1cccc(c1)C(=O)O,342,8182,http://www.amazon.com/dp/B003XEQTLE,Aldrich Chemical Company; Aldrich Catalog-Handbook of Fine Chemicals; Milwaukee; WI; 1984.,2,342,347,5
3952,3'-fluoroacetanilide,CC(=O)Nc1cccc(c1)F,88,9218,http://www.alfa.com/en/GP100W.pgm?DSSTK=B22889,Alfa Aesar,2,83,88,5
6765,deoxybenzoin,c1ccc(cc1)CC(=O)c2ccccc2,55,9554,http://www.alfa.com/en/GP100W.pgm?DSSTK=A10580,Alfa Aesar,2,55,60,5
3227,"3,4-(methylenedioxy)benzyl alcohol",c1cc2c(cc1CO)OCO2,53,9900,http://www.alfa.com/en/GP100W.pgm?DSSTK=A12661,Alfa Aesar,2,53,58,5
13746,o-toluamide,Cc1ccccc1C(=O)N,142,10254,http://www.amazon.com/dp/B003XEQTLE,Aldrich Chemical Company; Aldrich Catalog-Handbook of Fine Chemicals; Milwaukee; WI; 1984.,2,142,147,5
715,"1,2,4-benzenetricarboxylic anhydride",c1cc2c(cc1C(=O)O)C(=O)OC2=O,167,10618,http://www.alfa.com/en/GP100W.pgm?DSSTK=B23003,Alfa Aesar,2,162,167,5
2222,2-bromoisovaleric acid,CC(C)C(C(=O)O)Br,39,10794,http://www.alfa.com/en/GP100W.pgm?DSSTK=A10756,Alfa Aesar,2,39,44,5
6252,8-aminoquinoline,c1cc2cccnc2c(c1)N,65,10881,http://www.alfa.com/en/GP100W.pgm?DSSTK=A16752,Alfa Aesar,2,65,70,5
6302,9-nitroanthracene,c1ccc2c(c1)cc3ccccc3c2[N+](=O)[O-],141,11274,http://www.alfa.com/en/GP100W.pgm?DSSTK=L01093,Alfa Aesar,2,141,146,5
4157,3-nitrophthalimide,c1cc2c(c(c1)[N+](=O)[O-])C(=O)NC2=O,219,11286,http://www.alfa.com/en/GP100W.pgm?DSSTK=A15291,Alfa Aesar,2,214,219,5
15326,2-Phenyl-4H-benzo[h]chromen-4-one,O=C2C=C(Oc1c3ccccc3ccc12)c4ccccc4,153,11297,http://msds.chem.ox.ac.uk/,academic website,2,153,158,5
2752,2-indanone,c1ccc2c(c1)CC(=O)C2,54,11488,http://www.alfa.com/en/GP100W.pgm?DSSTK=A12574,Alfa Aesar,2,54,59,5
5409,4-methylimidazole,Cc1c[nH]cn1,51,12640,http://www.alfa.com/en/GP100W.pgm?DSSTK=B24139,Alfa Aesar,2,51,56,5
16161,Tributylphosphine,CCCCP(CCCC)CCCC,-60,13231,http://msds.chem.ox.ac.uk/,academic website,2,-65,-60,5
5647,"5,6,7,8-tetrahydro-2-naphthol",c1cc2c(cc1O)CCCC2,62,13667,http://www.alfa.com/en/GP100W.pgm?DSSTK=L10164,Alfa Aesar,2,57,62,5
12912,3-methylisoquinoline,[nH0]1cc2ccccc2cc1C,63,13668,http://dx.doi.org/10.1021/ci0500132,Karthikeyan M.; Glen R.C.; Bender A. General melting point prediction based on a diverse compound dataset and artificial neural networks. J. Chem. Inf. Model.; 2005; 45(3); 581-4494,2,63,68,5
6544,bis(4-chlorophenyl) disulfide,c1cc(ccc1SSc2ccc(cc2)Cl)Cl,73,13721,http://www.alfa.com/en/GP100W.pgm?DSSTK=B25604,Alfa Aesar,2,68,73,5
5936,5-indanol,c1cc2c(cc1O)CCC2,53,14390,http://www.alfa.com/en/GP100W.pgm?DSSTK=L01623,Alfa Aesar,2,53,58,5
1876,2-acetylbenzo[b]furan,CC(=O)c1cc2ccccc2o1,71,14690,http://www.alfa.com/en/GP100W.pgm?DSSTK=L13771,Alfa Aesar,2,71,76,5
7244,fluorescein,c1ccc2c(c1)C(=O)OC23c4ccc(cc4Oc5c3ccc(c5)O)O,320,15968,http://www.alfa.com/en/GP100W.pgm?DSSTK=L13251,Alfa Aesar,2,315,320,5
18036,"oxirane, 2,3-dimethyl-, trans-",CC1OC1C,-85,17595,http://www.srcinc.com/what-we-do/product.aspx?id=133,PHYSPROP,2,-85,-80,5
4286,4-(bromomethyl)benzoic acid,c1cc(ccc1CBr)C(=O)O,225,21185,http://www.alfa.com/en/GP100W.pgm?DSSTK=L03371,Alfa Aesar,2,225,230,5
4984,4-chlorophenoxyacetic acid,c1cc(ccc1OCC(=O)O)Cl,159,24438,http://www.alfa.com/en/GP100W.pgm?DSSTK=A13065,Alfa Aesar,2,159,164,5
505,"1,4-diaminoanthraquinone",c1ccc2c(c1)C(=O)c3c(ccc(c3C2=O)N)N,263,29150,http://www.alfa.com/en/GP100W.pgm?DSSTK=A19156,Alfa Aesar,2,263,268,5
900,"(3-bromo-2,4,6-trimethylphenylcarbamoyl)methyliminodiacetic acid",Cc1cc(c(c(c1NC(=O)CN(CC(=O)O)CC(=O)O)C)Br)C,194,48922,http://www.alfa.com/en/GP100W.pgm?DSSTK=L16086,Alfa Aesar,2,194,199,5
4193,3-phenylpropionyl chloride,c1ccc(cc1)CCC(=O)Cl,-7,58333,http://www.alfa.com/en/GP100W.pgm?DSSTK=A10860,Alfa Aesar,2,-7,-2,5
159,"1-hydroxymethyl-5,5-dimethylhydantoin",CC1(C(=O)NC(=O)N1CO)C,105,60357,http://www.alfa.com/en/GP100W.pgm?DSSTK=A19868,Alfa Aesar,2,100,105,5
7402,julolidine,c1cc2c3c(c1)CCCN3CCC2,35,61383,http://www.alfa.com/en/GP100W.pgm?DSSTK=B22976,Alfa Aesar,2,35,40,5
15140,"2,3,5,6-Tetrafluoro-1,4-benzoquinone",FC=1C(=O)C(F)=C(F)C(=O)C=1F,179,61540,http://msds.chem.ox.ac.uk/,academic website,2,179,184,5
4612,4-aminopyrimidine,c1cncnc1N,150,62181,http://www.alfa.com/en/GP100W.pgm?DSSTK=H27367,Alfa Aesar,2,150,155,5
7846,"N,N'-diethyloxamide",CCNC(=O)C(=O)NCC,180,62423,http://www.alfa.com/en/GP100W.pgm?DSSTK=B24167,Alfa Aesar,2,175,180,5
3662,3-brombenzophenone,c1ccc(cc1)C(=O)c2cccc(c2)Br,76,63718,http://www.alfa.com/en/GP100W.pgm?DSSTK=H53505,Alfa Aesar,2,76,81,5
8107,N-methylsuccinimide,CN1C(=O)CCC1=O,66,63882,http://www.alfa.com/en/GP100W.pgm?DSSTK=A12956,Alfa Aesar,2,66,71,5
6186,6-phenylhexanoic acid,c1ccc(cc1)CCCCCC(=O)O,18,71995,http://www.alfa.com/en/GP100W.pgm?DSSTK=A11187,Alfa Aesar,2,18,23,5
4563,4-amino-2-methylquinoline,Cc1cc(c2ccccc2n1)N,164,73183,http://www.alfa.com/en/GP100W.pgm?DSSTK=L14295,Alfa Aesar,2,164,169,5
1649,"2,5-dimethoxytoluene",Cc1cc(ccc1OC)OC,20,81759,http://www.alfa.com/en/GP100W.pgm?DSSTK=B21631,Alfa Aesar,2,15,20,5
15908,Methyl beta-D-galactopyranoside,O[C@@H]1[C@@H](O)[C@@H](O)[C@@H](CO)O[C@H]1OC,172,85024,http://msds.chem.ox.ac.uk/,academic website,2,172,177,5
8684,triphosgene,C(=O)(OC(Cl)(Cl)Cl)OC(Cl)(Cl)Cl,84,85216,http://www.alfa.com/en/GP100W.pgm?DSSTK=A14932,Alfa Aesar,2,79,84,5
5275,4-iodophenylacetonitrile,c1cc(ccc1CC#N)I,53,126037,http://www.alfa.com/en/GP100W.pgm?DSSTK=L15119,Alfa Aesar,2,48,53,5
14805,"(2S,3S)-2,3-Dihydroxysuccinic acid",O=C(O)[C@@H](O)[C@H](O)C(O)=O,173,388726,http://msds.chem.ox.ac.uk/,academic website,2,168,173,5
7694,methyl phenylsulfonylacetate,COC(=O)CS(=O)(=O)c1ccccc1,30,483123,http://www.alfa.com/en/GP100W.pgm?DSSTK=L03748,Alfa Aesar,2,30,35,5
6529,biphenyl-4-carboxamide,c1ccc(cc1)c2ccc(cc2)C(=O)N,228,523754,http://www.alfa.com/en/GP100W.pgm?DSSTK=A16813,Alfa Aesar,2,223,228,5
15080,1-Phenylthiourea,S=C(N)Nc1ccccc1,149,589165,http://msds.chem.ox.ac.uk/,academic website,2,149,154,5
5952,5-mercapto-1-methyltetrazole,Cn1c(nnn1)S,127,2005963,http://www.alfa.com/en/GP100W.pgm?DSSTK=B20443,Alfa Aesar,2,122,127,5
9729,"(2E)-2-bicyclo[4.2.0]octa-1,3,5-trien-7-ylidene-1-phenylethanone",O=C(C=C1Cc2ccccc21)c1ccccc1,50,4645230,http://dx.doi.org/10.1021/ci0500132,Karthikeyan M.; Glen R.C.; Bender A. General melting point prediction based on a diverse compound dataset and artificial neural networks. J. Chem. Inf. Model.; 2005; 45(3); 581-1311,2,50,55,5
7093,ethyl 3-nitrobenzoate,CCOC(=O)c1cccc(c1)[N+](=O)[O-],42,21106111,http://www.alfa.com/en/GP100W.pgm?DSSTK=A10626,Alfa Aesar,2,42,47,5
27802,aspartic acid,C(C(C(=O)O)N)C(=O)O,275,411,http://chemspider.com/411,EPISuite-ChemSpider,3,270,275,5
15514,"5-Chloro-1-{1-[3-(2-oxo-2,3-dihydro-1H-benzimidazol-1-yl)propyl]piperidin-4-yl}-1,3-dihydro-2H-benzimidazol-2-one",Clc4cc5NC(=O)N(C3CCN(CCCN1c2ccccc2NC1=O)CC3)c5cc4,237.5,3039,http://msds.chem.ox.ac.uk/,academic website,3,237.5,242.5,5
28467,probarbital,O=C1NC(=O)NC(=O)C1(C(C)C)CC,203,6213,http://chemspider.com/6213,EPISuite-ChemSpider,3,198,203,5
30,1-naphthylacetic acid,c1ccc2c(c1)cccc2CC(=O)O,130,6601,http://www.alfa.com/en/GP100W.pgm?DSSTK=A11069,Alfa Aesar,3,130,135,5
14383,"4,4'-dihydroxybiphenyl",Oc1ccc(cc1)c2ccc(O)cc2,278,6845,http://www.amazon.com/dp/B003XEQTLE,Aldrich Chemical Company; Aldrich Catalog-Handbook of Fine Chemicals; Milwaukee; WI; 1984.,3,278,283,5
15803,Ethyl chloroacetate,ClCC(=O)OCC,-26,7465,http://msds.chem.ox.ac.uk/,academic website,3,-26,-21,5
15056,1-Methoxypropan-2-ol,CC(O)COC,-97,7612,http://msds.chem.ox.ac.uk/,academic website,3,-100,-95,5
3004,2-octanone,CCCCCCC(=O)C,-16,7802,http://www.alfa.com/en/GP100W.pgm?DSSTK=A11643,Alfa Aesar,3,-21,-16,5
177,1-heptylamine,CCCCCCCN,-23,7835,http://www.alfa.com/en/GP100W.pgm?DSSTK=A17922,Alfa Aesar,3,-23,-18,5
15763,Docosanoic acid,O=C(O)CCCCCCCCCCCCCCCCCCCCC,76,7923,http://msds.chem.ox.ac.uk/,academic website,3,76,81,5
15120,"2,2,4,4,6,6-Hexamethyl-1,3,5,2,4,6-trioxatrisilinane",C[Si]1(C)O[Si](C)(C)O[Si](C)(C)O1,60,10452,http://msds.chem.ox.ac.uk/,academic website,3,60,65,5
14506,2-bromonaphthalene,Brc1ccc2ccccc2c1,54,10894,http://www.amazon.com/dp/B003XEQTLE,Aldrich Chemical Company; Aldrich Catalog-Handbook of Fine Chemicals; Milwaukee; WI; 1984.,3,54,59,5
14021,p-chlorobenzamide,O=C(N)c1ccc(Cl)cc1,173,11587,http://www.amazon.com/dp/B003XEQTLE,Aldrich Chemical Company; Aldrich Catalog-Handbook of Fine Chemicals; Milwaukee; WI; 1984.,3,173,178,5
3573,3-acetylindole,CC(=O)c1c[nH]c2c1cccc2,189,12275,http://www.alfa.com/en/GP100W.pgm?DSSTK=A16221,Alfa Aesar,3,189,194,5
15545,"9,10-Diphenylanthracene",c1cccc4c1c(c2ccccc2c4c3ccccc3)c5ccccc5,249,14430,http://msds.chem.ox.ac.uk/,academic website,3,246,251,5
14585,"1-bromo-2,6-dichlorobenzene",Clc1cccc(Cl)c1Br,66,27488,http://www.amazon.com/dp/B003XEQTLE,Aldrich Chemical Company; Aldrich Catalog-Handbook of Fine Chemicals; Milwaukee; WI; 1984.,3,61,66,5
3425,"3,5-dichlorobenzaldehyde",c1c(cc(cc1Cl)Cl)C=O,63,32882,http://www.alfa.com/en/GP100W.pgm?DSSTK=A13325,Alfa Aesar,3,63,68,5
7603,methyl 4-cyanobenzoate,COC(=O)c1ccc(cc1)C#N,67,63956,http://www.alfa.com/en/GP100W.pgm?DSSTK=L08365,Alfa Aesar,3,62,67,5
4780,4-bromo-3-methylphenol,Cc1cc(ccc1Br)O,59,65689,http://www.alfa.com/en/GP100W.pgm?DSSTK=L17510,Alfa Aesar,3,59,64,5
7089,ethyl 3-methyl-1h-pyrazole-5-carboxylate,CCOC(=O)c1cc(n[nH]1)C,82,70048,http://www.alfa.com/en/GP100W.pgm?DSSTK=A12304,Alfa Aesar,3,82,87,5
15032,1H-Benzimidazole-2-thiol,Sc1nc2ccccc2n1,303,616466,http://msds.chem.ox.ac.uk/,academic website,3,298,303,5
28318,Nitrofurantoin,C1C(=O)NC(=O)N1/N=C/C2=CC=C(O2)[N+](=O)[O-],268,5036498,http://dx.doi.org/10.1016/j.chemosphere.2013.10.095,Abraham M.H. and Acree Jr. W.E. The solubility of liquid and solid compounds in dry octan-1-ol. Chemosphere (2013),3,263,268,5
13776,o-aminobenzamide,O=C(N)c1ccccc1N,113,10298355,http://www.amazon.com/dp/B003XEQTLE,Aldrich Chemical Company; Aldrich Catalog-Handbook of Fine Chemicals; Milwaukee; WI; 1984.,3,108,113,5
15928,"N-(2-Aminoethyl)ethane-1,2-diamine",NCCNCCN,-35,13835401,http://msds.chem.ox.ac.uk/,academic website,3,-40,-35,5
1538,"2,4-dimethylphenol",Cc1ccc(c(c1)C)O,22,13839123,http://www.alfa.com/en/GP100W.pgm?DSSTK=A11966,Alfa Aesar,3,22,27,5
14725,bis-2-ethylhexyl_phthalate,CCC(CCCC)COC(=O)c1ccccc1C(=O)OCC(CC)CCCC,-50,21106505,http://www.amazon.com/dp/B003XEQTLE,Aldrich Chemical Company; Aldrich Catalog-Handbook of Fine Chemicals; Milwaukee; WI; 1984.,3,-55,-50,5
2259,2-carboxyphenyl phosphate,c1ccc(c(c1)C(=O)O)OP(=O)(O)O,164,3300,http://www.alfa.com/en/GP100W.pgm?DSSTK=A14417,Alfa Aesar,4,164,169,5
15282,"2-Methyl-1,4-naphthoquinone",O=C2C=C(C)C(=O)c1ccccc12,102,3915,http://msds.chem.ox.ac.uk/,academic website,4,102,107,5
28463,Prednisolone,C[C@]12C[C@@H]([C@H]3[C@H]([C@@H]1CC[C@@]2(C(=O)CO)O)CCC4=CC(=O)C=C[C@]34C)O,240,5552,http://dx.doi.org/10.1016/j.chemosphere.2013.10.095,Abraham M.H. and Acree Jr. W.E. The solubility of liquid and solid compounds in dry octan-1-ol. Chemosphere (2013),4,235,240,5
27422,1-Nitronaphthalene,C1=CC=C2C(=C1)C=CC=C2[N+](=O)[O-],62,6588,http://dx.doi.org/10.1016/j.chemosphere.2013.10.095,Abraham M.H. and Acree Jr. W.E. The solubility of liquid and solid compounds in dry octan-1-ol. Chemosphere (2013),4,57,62,5
15801,Ethyl butyrate,CCCC(=O)OCC,-93,7475,http://msds.chem.ox.ac.uk/,academic website,4,-98,-93,5
14911,"1,2,3,4-Tetrahydronaphthalene",c1ccc2CCCCc2c1,-31,8097,http://msds.chem.ox.ac.uk/,academic website,4,-36,-31,5