key,name,smiles,mpC,csid,link,source,count,min,max,range
443,"1,5-dichloropentane",C(CCCl)CCCl,-72,21106526,http://www.alfa.com/en/GP100W.pgm?DSSTK=A12433,Alfa Aesar,3,-73,-72,1
14389,"2,4-dichloroacetophenone",O=C(C)c1ccc(Cl)cc1Cl,34,21106529,http://www.amazon.com/dp/B003XEQTLE,Aldrich Chemical Company; Aldrich Catalog-Handbook of Fine Chemicals; Milwaukee; WI; 1984.,3,33,34,1
14231,"3,4-dichlorobenzaldehyde",Clc1ccc(C=O)cc1Cl,44,21106577,http://www.amazon.com/dp/B003XEQTLE,Aldrich Chemical Company; Aldrich Catalog-Handbook of Fine Chemicals; Milwaukee; WI; 1984.,3,43,44,1
15021,1-Ethoxy-2-(2-ethoxyethoxy)ethane,CCOCCOCCOCC,-44,21106583,http://msds.chem.ox.ac.uk/,academic website,3,-45,-44,1
27796,apocynin,Oc1ccc(cc1OC)C(C)=O,114.5,21106900,http://www.alfa.com/content/msds/USA/A10439.pdf,Alfa Aesar,3,114,115,1
14133,methyl_4-methoxybenzoate,COc1ccc(cc1)C(=O)OC,50,21108577,http://www.amazon.com/dp/B003XEQTLE,Aldrich Chemical Company; Aldrich Catalog-Handbook of Fine Chemicals; Milwaukee; WI; 1984.,3,49,50,1
13512,pinacol,CC(C)(O)C(C)(C)O,43,21109330,http://www.amazon.com/dp/B003XEQTLE,Aldrich Chemical Company; Aldrich Catalog-Handbook of Fine Chemicals; Milwaukee; WI; 1984.,3,43,44,1
13955,2-chlorobenzyl_cyanide,Clc1ccccc1CC#N,24,21111776,http://www.amazon.com/dp/B003XEQTLE,Aldrich Chemical Company; Aldrich Catalog-Handbook of Fine Chemicals; Milwaukee; WI; 1984.,3,23,24,1
13766,o-anisaldehyde,COc1ccccc1C=O,38,21111781,http://www.amazon.com/dp/B003XEQTLE,Aldrich Chemical Company; Aldrich Catalog-Handbook of Fine Chemicals; Milwaukee; WI; 1984.,3,37,38,1
13830,m-chlorobenzaldehyde,O=Cc1cc(Cl)ccc1,18,21111819,http://www.amazon.com/dp/B003XEQTLE,Aldrich Chemical Company; Aldrich Catalog-Handbook of Fine Chemicals; Milwaukee; WI; 1984.,3,17,18,1
14407,"2,5-dichloronitrobenzene",O=[N+]([O-])c1cc(Cl)ccc1Cl,56,21111865,http://www.amazon.com/dp/B003XEQTLE,Aldrich Chemical Company; Aldrich Catalog-Handbook of Fine Chemicals; Milwaukee; WI; 1984.,3,55,56,1
14232,"a,a'-dichloro-o-xylene",ClCc1ccccc1CCl,56,21111896,http://www.amazon.com/dp/B003XEQTLE,Aldrich Chemical Company; Aldrich Catalog-Handbook of Fine Chemicals; Milwaukee; WI; 1984.,3,55,56,1
7122,ethyl 4-methoxybenzoate,CCOC(=O)c1ccc(cc1)OC,8,21159425,http://www.alfa.com/en/GP100W.pgm?DSSTK=A14008,Alfa Aesar,3,7,8,1
6490,benzyl methyl ether,COCc1ccccc1,-53,21170543,http://www.alfa.com/en/GP100W.pgm?DSSTK=B23490,Alfa Aesar,3,-53,-52,1
14691,"1,4-dichloro-2-iodobenzene",Clc1ccc(Cl)c(I)c1,21,21171496,http://www.amazon.com/dp/B003XEQTLE,Aldrich Chemical Company; Aldrich Catalog-Handbook of Fine Chemicals; Milwaukee; WI; 1984.,3,21,22,1
14490,p-bromonitrobenzene,O=[N+]([O-])c1ccc(Br)cc1,126,21171513,http://www.amazon.com/dp/B003XEQTLE,Aldrich Chemical Company; Aldrich Catalog-Handbook of Fine Chemicals; Milwaukee; WI; 1984.,3,126,127,1
14353,2-bromo-p-xylene,Cc1cc(Br)c(C)cc1,10,21171515,http://www.amazon.com/dp/B003XEQTLE,Aldrich Chemical Company; Aldrich Catalog-Handbook of Fine Chemicals; Milwaukee; WI; 1984.,3,9,10,1
15670,Citric acid,OC(=O)CC(O)(CC(O)=O)C(=O)O,153,305,http://msds.chem.ox.ac.uk/,academic website,4,153,154,1
16089,Propionaldehyde,CCC=O,-81,512,http://msds.chem.ox.ac.uk/,academic website,4,-81,-80,1
15958,"N,N-Dimethylaniline",CN(C)c1ccccc1,2,924,http://msds.chem.ox.ac.uk/,academic website,4,2,3,1
16082,Propan-1-ol,CCCO,-127,1004,http://msds.chem.ox.ac.uk/,academic website,4,-127,-126,1
16154,Thymine,CC1=CNC(=O)NC1=O,316.5,1103,http://msds.chem.ox.ac.uk/,academic website,4,316,317,1
15453,"4-Chlorobenzene-1,3-diol",Oc1ccc(Cl)c(O)c1,107,1668,http://msds.chem.ox.ac.uk/,academic website,4,106,107,1
8801,clotrimazole,Clc1ccccc1C(c2ccccc2)(c3ccccc3)n4ccnc4,147,2710,http://dx.doi.org/10.1021/ci020280x,Bergstrom C. A. S.; Norinder U.; Luthman K.; Artursson P. Molecular Descriptors Influencing Melting Point and Their Role in Classification of Solid Drugs. J. Chem. Inf. Comput. Sci.; (Article); 2003; 43(4); 1177-1247,4,147,148,1
15707,Dibromomethane,BrCBr,-52,2916,http://msds.chem.ox.ac.uk/,academic website,4,-53,-52,1
8817,felbamate,NC(=O)OCC(COC(N)=O)c1ccccc1,151,3214,http://dx.doi.org/10.1021/ci020280x,Bergstrom C. A. S.; Norinder U.; Luthman K.; Artursson P. Molecular Descriptors Influencing Melting Point and Their Role in Classification of Solid Drugs. J. Chem. Inf. Comput. Sci.; (Article); 2003; 43(4); 1177-1263,4,151,152,1
15125,"2,2-Dichloro-1,1-difluoroethyl methyl ether",ClC(Cl)C(F)(F)OC,-35,3973,http://msds.chem.ox.ac.uk/,academic website,4,-36,-35,1
15095,2-(2-Methyl-5-nitro-1H-imidazol-1-yl)ethanol,Cc1ncc([N+]([O-])=O)n1CCO,160,4029,http://msds.chem.ox.ac.uk/,academic website,4,159,160,1
16108,Resorcinol,Oc1cccc(O)c1,111,4878,http://msds.chem.ox.ac.uk/,academic website,4,110,111,1
28538,Sulfadimethoxine,COC1=NC(=NC(=C1)NS(=O)(=O)C2=CC=C(C=C2)N)OC,204.5,5132,http://dx.doi.org/10.1016/j.chemosphere.2013.10.095,Abraham M.H. and Acree Jr. W.E. The solubility of liquid and solid compounds in dry octan-1-ol. Chemosphere (2013),4,203.5,204.5,1
15802,Ethyl carbamate,NC(=O)OCC,48,5439,http://msds.chem.ox.ac.uk/,academic website,4,48,49,1
15194,"2,6-Dichlorobenzoic acid",OC(=O)c1c(Cl)cccc1Cl,144,5555,http://msds.chem.ox.ac.uk/,academic website,4,143,144,1
27494,17a-Methyltestosterone,C[C@]12CCC(=O)C=C1CC[C@@H]3[C@@H]2CC[C@]4([C@H]3CC[C@]4(C)O)C,163,5788,http://dx.doi.org/10.1016/j.chemosphere.2013.10.095,Abraham M.H. and Acree Jr. W.E. The solubility of liquid and solid compounds in dry octan-1-ol. Chemosphere (2013),4,163,164,1
16060,Pentan-1-ol,CCCCCO,-78,6040,http://msds.chem.ox.ac.uk/,academic website,4,-79,-78,1
15241,2-Chloropropane,CC(C)Cl,-118,6121,http://msds.chem.ox.ac.uk/,academic website,4,-118,-117,1
15304,2-Methylpropan-2-ol,CC(C)(C)O,25,6146,http://msds.chem.ox.ac.uk/,academic website,4,25,26,1
15129,"2,2-Dimethylbutane",CC(C)(C)CC,-100,6163,http://msds.chem.ox.ac.uk/,academic website,4,-100,-99,1
15345,"3,3-Dimethylbutan-2-one",CC(C)(C)C(C)=O,-52.5,6176,http://msds.chem.ox.ac.uk/,academic website,4,-53,-52,1
15644,Butan-2-one,CC(=O)CC,-87,6321,http://msds.chem.ox.ac.uk/,academic website,4,-87,-86,1
13156,acrylic_acid,C=CC(=O)O,13,6333,http://www.amazon.com/dp/B003XEQTLE,Aldrich Chemical Company; Aldrich Catalog-Handbook of Fine Chemicals; Milwaukee; WI; 1984.,4,12.5,13.5,1
15150,"2,3-Dimethylbutane",CC(C)C(C)C,-128,6340,http://msds.chem.ox.ac.uk/,academic website,4,-129,-128,1
7357,isobutyric acid,CC(C)C(=O)O,-47,6341,http://www.alfa.com/en/GP100W.pgm?DSSTK=L04038,Alfa Aesar,4,-47,-46,1
14890,"1,1,2,2-Tetrachloroethane",ClC(Cl)C(Cl)Cl,-43,6342,http://msds.chem.ox.ac.uk/,academic website,4,-44,-43,1
14948,"1,3-Dimethyl-2-nitrobenzene",Cc1cccc(C)c1[N+](=O)[O-],15,6420,http://msds.chem.ox.ac.uk/,academic website,4,15,16,1
15269,2-Iodobenzoic acid,OC(=O)c1ccccc1I,162.5,6675,http://msds.chem.ox.ac.uk/,academic website,4,162,163,1
13761,2-isopropylphenol,CC(C)c1ccccc1O,16,6677,http://www.amazon.com/dp/B003XEQTLE,Aldrich Chemical Company; Aldrich Catalog-Handbook of Fine Chemicals; Milwaukee; WI; 1984.,4,15,16,1
15070,1-Naphthol,Oc2cccc1ccccc12,95,6739,http://msds.chem.ox.ac.uk/,academic website,4,95,96,1
16092,Propiophenone,O=C(CC)c1ccccc1,18,6881,http://msds.chem.ox.ac.uk/,academic website,4,18,19,1
15721,Diethyl oxalate,CCOC(=O)C(=O)OCC,-41,6998,http://msds.chem.ox.ac.uk/,academic website,4,-41,-40,1
27461,"1,2,4,5-Tetramethylbenzene",CC1=CC(=C(C=C1C)C)C,79,6999,http://dx.doi.org/10.1016/j.chemosphere.2013.10.095,Abraham M.H. and Acree Jr. W.E. The solubility of liquid and solid compounds in dry octan-1-ol. Chemosphere (2013),4,79,80,1
16063,Pentan-3-one,CCC(=O)CC,-40,7016,http://msds.chem.ox.ac.uk/,academic website,4,-40,-39,1
16004,Nitrobenzene,[O-][N+](=O)c1ccccc1,5,7138,http://msds.chem.ox.ac.uk/,academic website,4,5,6,1
14950,"1,3-Dinitrobenzene",O=[N+]([O-])c1cccc(c1)[N+]([O-])=O,89,7172,http://msds.chem.ox.ac.uk/,academic website,4,89,90,1
15996,N-Hydroxycyclohexanimine,ON=C1/CCCCC1,90,7236,http://msds.chem.ox.ac.uk/,academic website,4,89,90,1
15969,"N,N-Dipropylpropan-1-amine",CCCN(CCC)CCC,-93.5,7334,http://msds.chem.ox.ac.uk/,academic website,4,-94,-93,1
16095,Propylbenzene,CCCc1ccccc1,-99,7385,http://msds.chem.ox.ac.uk/,academic website,4,-100,-99,1
15991,N-Ethylaniline,CCNc1ccccc1,-64,7387,http://msds.chem.ox.ac.uk/,academic website,4,-64,-63,1
15910,Methyl formate,O=COC,-100,7577,http://msds.chem.ox.ac.uk/,academic website,4,-100,-99,1
15153,"2,4,4-Trimethylpent-1-ene",C=C(C)CC(C)(C)C,-94,7580,http://msds.chem.ox.ac.uk/,academic website,4,-94,-93,1
15921,Methylcyclohexane,CC1CCCCC1,-127,7674,http://msds.chem.ox.ac.uk/,academic website,4,-127,-126,1
15663,Chlorobenzene,Clc1ccccc1,-45,7676,http://msds.chem.ox.ac.uk/,academic website,4,-46,-45,1
15640,Butan-1-amine,CCCCN,-49,7716,http://msds.chem.ox.ac.uk/,academic website,4,-50,-49,1
16021,Nonane,CCCCCCCCC,-53,7849,http://msds.chem.ox.ac.uk/,academic website,4,-54,-53,1
20,1-octylamine,CCCCCCCCN,-1,7851,http://www.alfa.com/en/GP100W.pgm?DSSTK=B24193,Alfa Aesar,4,-1,0,1
15701,Decan-1-ol,CCCCCCCCCCO,7,7882,http://msds.chem.ox.ac.uk/,academic website,4,6,7,1
15859,Icosane,CCCCCCCCCCCCCCCCCCCC,36.7,7929,http://msds.chem.ox.ac.uk/,academic website,4,36,37,1
6970,diphenylacetic acid,c1ccc(cc1)C(c2ccccc2)C(=O)O,147,8030,http://www.alfa.com/en/GP100W.pgm?DSSTK=A11489,Alfa Aesar,4,146,147,1
16120,Suberic acid,O=C(O)CCCCCCC(=O)O,143,10025,http://msds.chem.ox.ac.uk/,academic website,4,143,144,1
15235,2-Chloro-2-methylpropane,CC(C)(C)Cl,-26,10054,http://msds.chem.ox.ac.uk/,academic website,4,-26,-25,1
14883,"1,1',1''-Methanetriyltribenzene",c1ccccc1C(c2ccccc2)c3ccccc3,94,10169,http://msds.chem.ox.ac.uk/,academic website,4,93,94,1
15290,2-Methylbut-1-ene,C=C(C)CC,-137,10766,http://msds.chem.ox.ac.uk/,academic website,4,-138,-137,1
15824,Heptadecane,CCCCCCCCCCCCCCCCC,21,11892,http://msds.chem.ox.ac.uk/,academic website,4,21,22,1
16017,Nonadecane,CCCCCCCCCCCCCCCCCCC,33,11895,http://msds.chem.ox.ac.uk/,academic website,4,32,33,1
16136,Tetradec-1-ene,CCCCCCCCCCCCC=C,-13,13622,http://msds.chem.ox.ac.uk/,academic website,4,-13,-12,1
8764,aminorex,NC1=NCC(O1)c2ccccc2,136,15767,http://dx.doi.org/10.1021/ci020280x,Bergstrom C. A. S.; Norinder U.; Luthman K.; Artursson P. Molecular Descriptors Influencing Melting Point and Their Role in Classification of Solid Drugs. J. Chem. Inf. Comput. Sci.; (Article); 2003; 43(4); 1177-1210,4,136,137,1
14492,2-chloro-5-nitrobenzoic_acid,OC(=O)c1cc(ccc1Cl)[N+]([O-])=O,166,16359,http://www.amazon.com/dp/B003XEQTLE,Aldrich Chemical Company; Aldrich Catalog-Handbook of Fine Chemicals; Milwaukee; WI; 1984.,4,166,167,1
15529,6-Aminohexan-1-ol,NCCCCCCO,56,18801,http://msds.chem.ox.ac.uk/,academic website,4,56,57,1
8849,lofexidine,CC(Oc1c(Cl)cccc1Cl)C2=NCCN2,126,28460,http://dx.doi.org/10.1021/ci020280x,Bergstrom C. A. S.; Norinder U.; Luthman K.; Artursson P. Molecular Descriptors Influencing Melting Point and Their Role in Classification of Solid Drugs. J. Chem. Inf. Comput. Sci.; (Article); 2003; 43(4); 1177-1295,4,126,127,1
27554,"2,3,4-Trichloroanisole",Clc1ccc(OC)c(Cl)c1Cl,69,37440,http://dx.doi.org/10.1016/j.chemosphere.2013.10.095,Abraham M.H. and Acree Jr. W.E. The solubility of liquid and solid compounds in dry octan-1-ol. Chemosphere (2013),4,69,70,1
27719,6-Deoxyacyclovir,C1=C2C(=NC(=N1)N)N(C=N2)COCCO,189,49900,http://dx.doi.org/10.1016/j.chemosphere.2013.10.095,Abraham M.H. and Acree Jr. W.E. The solubility of liquid and solid compounds in dry octan-1-ol. Chemosphere (2013),4,188,189,1
15234,2-Chloro-2-methylbutane,CC(C)(Cl)CC,-73,55090,http://msds.chem.ox.ac.uk/,academic website,4,-74,-73,1
14099,p-nitrophenylacetonitrile,O=[N+]([O-])c1ccc(CC#N)cc1,116,61672,http://www.amazon.com/dp/B003XEQTLE,Aldrich Chemical Company; Aldrich Catalog-Handbook of Fine Chemicals; Milwaukee; WI; 1984.,4,116,117,1
14132,"3,5-dimethoxybenzaldehyde",COc1cc(cc(OC)c1)C=O,47,73763,http://www.amazon.com/dp/B003XEQTLE,Aldrich Chemical Company; Aldrich Catalog-Handbook of Fine Chemicals; Milwaukee; WI; 1984.,4,46,47,1
14783,(2E)-3-Phenylacrylaldehyde,O=CC=Cc1ccccc1,-7,553117,http://msds.chem.ox.ac.uk/,academic website,4,-8,-7,1
14014,2-amino-4-nitrophenol,Nc1cc(ccc1O)[N+]([O-])=O,144,2848685,http://www.amazon.com/dp/B003XEQTLE,Aldrich Chemical Company; Aldrich Catalog-Handbook of Fine Chemicals; Milwaukee; WI; 1984.,4,143,144,1
16097,p-Toluidine,Cc1ccc(N)cc1,43,13835151,http://msds.chem.ox.ac.uk/,academic website,4,43,44,1
15374,3-Chloroprop-1-ene,C=CCCl,-134,13836674,http://msds.chem.ox.ac.uk/,academic website,4,-135,-134,1
15633,Bromoform,BrC(Br)Br,9,13838404,http://msds.chem.ox.ac.uk/,academic website,4,8,9,1
15247,2-Ethoxyethyl acetate,CC(=O)OCCOCC,-62,13839109,http://msds.chem.ox.ac.uk/,academic website,4,-62,-61,1
15745,Dimethyl terephthalate,COC(=O)c1ccc(cc1)C(=O)OC,141,13863300,http://msds.chem.ox.ac.uk/,academic website,4,141,142,1
15012,1-Chloro-4-methylbenzene,Cc1ccc(Cl)cc1,7.5,13875160,http://msds.chem.ox.ac.uk/,academic website,4,7,8,1
14131,"3,4-dimethoxybenzaldehyde",COc1cc(ccc1OC)C=O,44,21106008,http://www.amazon.com/dp/B003XEQTLE,Aldrich Chemical Company; Aldrich Catalog-Handbook of Fine Chemicals; Milwaukee; WI; 1984.,4,43,44,1
15447,"4-Chloro-3,5-dimethylphenol",Oc1cc(C)c(Cl)c(C)c1,115,21106017,http://msds.chem.ox.ac.uk/,academic website,4,114,115,1
15448,4-Chloro-3-methylphenol,Oc1ccc(Cl)c(C)c1,67,21106018,http://msds.chem.ox.ac.uk/,academic website,4,66,67,1
14966,"1,4-Dichlorobutane",ClCCCCCl,-38,21106032,http://msds.chem.ox.ac.uk/,academic website,4,-38,-37,1
15641,Butan-1-ol,CCCCO,-89,258,http://msds.chem.ox.ac.uk/,academic website,5,-90,-89,1
6344,albendazole,CCCSc1ccc2c(c1)nc([nH]2)NC(=O)OC,209,1998,http://www.alfa.com/en/GP100W.pgm?DSSTK=H25925,Alfa Aesar,5,208,209,1
8926,amobarbital,CCC1(CCC(C)C)C(=O)NC(=O)NC1=O,156,2079,http://dx.doi.org/10.1021/ci020280x,Bergstrom C. A. S.; Norinder U.; Luthman K.; Artursson P. Molecular Descriptors Influencing Melting Point and Their Role in Classification of Solid Drugs. J. Chem. Inf. Comput. Sci.; (Article); 2003; 43(4); 1177-1372,5,156,157,1
8795,cimetidine,CNC(NCCSCc1nc[nH]c1C)=NC#N,141,2654,http://dx.doi.org/10.1021/ci020280x,Bergstrom C. A. S.; Norinder U.; Luthman K.; Artursson P. Molecular Descriptors Influencing Melting Point and Their Role in Classification of Solid Drugs. J. Chem. Inf. Comput. Sci.; (Article); 2003; 43(4); 1177-1241,5,141,142,1
15704,Decanoic acid,O=C(O)CCCCCCCCC,31,2863,http://msds.chem.ox.ac.uk/,academic website,5,31,32,1
8850,lorazepam,OC3N=C(c1ccccc1Cl)c2cc(Cl)ccc2NC3=O,166,3821,http://dx.doi.org/10.1021/ci020280x,Bergstrom C. A. S.; Norinder U.; Luthman K.; Artursson P. Molecular Descriptors Influencing Melting Point and Their Role in Classification of Solid Drugs. J. Chem. Inf. Comput. Sci.; (Article); 2003; 43(4); 1177-1296,5,166,167,1
15192,"2,6-Dichlorobenzaldehyde",O=Cc1c(Cl)cccc1Cl,70.5,6481,http://msds.chem.ox.ac.uk/,academic website,5,70.5,71.5,1
27631,"3,4-Dimethoxybenzoic acid",COC1=C(C=C(C=C1)C(=O)O)OC,181,6854,http://dx.doi.org/10.1016/j.chemosphere.2013.10.095,Abraham M.H. and Acree Jr. W.E. The solubility of liquid and solid compounds in dry octan-1-ol. Chemosphere (2013),5,180,181,1
15169,"2,4-Dihydroxybenzaldehyde",O=Cc1ccc(O)cc1O,136,6943,http://msds.chem.ox.ac.uk/,academic website,5,135,136,1
16091,Propiononitrile,CCC#N,-92,7566,http://msds.chem.ox.ac.uk/,academic website,5,-93,-92,1
15680,Cyclohexanamine,NC1CCCCC1,-18,7677,http://msds.chem.ox.ac.uk/,academic website,5,-18,-17,1
16205,Valeraldehyde,CCCCC=O,-91.5,7772,http://msds.chem.ox.ac.uk/,academic website,5,-92,-91,1
27617,3-Nitrobenzoic Acid,C1=CC(=CC(=C1)[N+](=O)[O-])C(=O)O,141,8183,http://dx.doi.org/10.1016/j.chemosphere.2013.10.095,Abraham M.H. and Acree Jr. W.E. The solubility of liquid and solid compounds in dry octan-1-ol. Chemosphere (2013),5,141,142,1
15310,2-Naphthol,Oc1ccc2ccccc2c1,122,8341,http://msds.chem.ox.ac.uk/,academic website,5,122,123,1
28111,Fluoranthene,C1=CC=C2C(=C1)C3=CC=CC4=C3C2=CC=C4,108,8800,http://dx.doi.org/10.1016/j.chemosphere.2013.10.095,Abraham M.H. and Acree Jr. W.E. The solubility of liquid and solid compounds in dry octan-1-ol. Chemosphere (2013),5,107.5,108.5,1
27724,9-fluorenone,C1=CC=C2C(=C1)C3=CC=CC=C3C2=O,83,9824,http://dx.doi.org/10.1016/j.chemosphere.2013.10.095,Abraham M.H. and Acree Jr. W.E. The solubility of liquid and solid compounds in dry octan-1-ol. Chemosphere (2013),5,83,84,1
8946,heptabarbital,CCC1(C(=O)NC(=O)NC1=O)C2=CCCCCC2,174,10081,http://dx.doi.org/10.1021/ci020280x,Bergstrom C. A. S.; Norinder U.; Luthman K.; Artursson P. Molecular Descriptors Influencing Melting Point and Their Role in Classification of Solid Drugs. J. Chem. Inf. Comput. Sci.; (Article); 2003; 43(4); 1177-1392,5,174,175,1
28570,Terbutryn,CCNC1=NC(=NC(=N1)SC)NC(C)(C)C,105,12874,http://dx.doi.org/10.1016/j.chemosphere.2013.10.095,Abraham M.H. and Acree Jr. W.E. The solubility of liquid and solid compounds in dry octan-1-ol. Chemosphere (2013),5,104,105,1
27557,"2,3,4-Trichloronitrobenzene",C1=CC(=C(C(=C1[N+](=O)[O-])Cl)Cl)Cl,55.5,26691,http://dx.doi.org/10.1016/j.chemosphere.2013.10.095,Abraham M.H. and Acree Jr. W.E. The solubility of liquid and solid compounds in dry octan-1-ol. Chemosphere (2013),5,55,56,1
15170,"2,4-Diisocyanato-1-methylbenzene",O=C=N/c1cc(ccc1C)N=C=O,20.5,13835351,http://msds.chem.ox.ac.uk/,academic website,5,20,21,1
16105,Pyrocatechol,Oc1ccccc1O,105,13837760,http://msds.chem.ox.ac.uk/,academic website,5,105,106,1
15888,m-Cresol,Cc1cc(O)ccc1,11,21105871,http://msds.chem.ox.ac.uk/,academic website,5,11,12,1
28400,Pentachlorobenzene,C1=C(C(=C(C(=C1Cl)Cl)Cl)Cl)Cl,85,21106570,http://dx.doi.org/10.1016/j.chemosphere.2013.10.095,Abraham M.H. and Acree Jr. W.E. The solubility of liquid and solid compounds in dry octan-1-ol. Chemosphere (2013),5,85,86,1
27803,Atenolol,CC(C)NCC(COC1=CC=C(C=C1)CC(=O)N)O,146,2162,http://dx.doi.org/10.1016/j.chemosphere.2013.10.095,Abraham M.H. and Acree Jr. W.E. The solubility of liquid and solid compounds in dry octan-1-ol. Chemosphere (2013),6,146,147,1
28057,Diuron,CN(C)C(=O)NC1=CC(=C(C=C1)Cl)Cl,159,3008,http://dx.doi.org/10.1016/j.chemosphere.2013.10.095,Abraham M.H. and Acree Jr. W.E. The solubility of liquid and solid compounds in dry octan-1-ol. Chemosphere (2013),6,158,159,1
15214,2-[(Carbamoyloxy)methyl]-2-methylpentyl carbamate,O=C(N)OCC(C)(COC(=O)N)CCC,105,3924,http://msds.chem.ox.ac.uk/,academic website,6,104,105,1
8870,omeprazole,COc2ccc1[nH]c(nc1c2)S(=O)Cc3ncc(C)c(OC)c3C,156,4433,http://dx.doi.org/10.1021/ci020280x,Bergstrom C. A. S.; Norinder U.; Luthman K.; Artursson P. Molecular Descriptors Influencing Melting Point and Their Role in Classification of Solid Drugs. J. Chem. Inf. Comput. Sci.; (Article); 2003; 43(4); 1177-1316,6,155,156,1
27928,Cholesterol,C[C@H](CCCC(C)C)[C@H]1CC[C@@H]2[C@@]1(CC[C@H]3[C@H]2CC=C4[C@@]3(CC[C@@H](C4)O)C)C,148,5775,http://dx.doi.org/10.1016/j.chemosphere.2013.10.095,Abraham M.H. and Acree Jr. W.E. The solubility of liquid and solid compounds in dry octan-1-ol. Chemosphere (2013),6,148,149,1
28644,Xanthene,C1C2=CC=CC=C2OC3=CC=CC=C31,101,6840,http://dx.doi.org/10.1016/j.chemosphere.2013.10.095,Abraham M.H. and Acree Jr. W.E. The solubility of liquid and solid compounds in dry octan-1-ol. Chemosphere (2013),6,100.5,101.5,1
15403,4-(Dimethylamino)benzaldehyde,CN(C)c1ccc(C=O)cc1,74,7199,http://msds.chem.ox.ac.uk/,academic website,6,74,75,1
28091,Ethyl 4-hydroxybenzoate,CCOC(=O)C1=CC=C(C=C1)O,116,13846749,http://dx.doi.org/10.1016/j.chemosphere.2013.10.095,Abraham M.H. and Acree Jr. W.E. The solubility of liquid and solid compounds in dry octan-1-ol. Chemosphere (2013),6,116,117,1
28532,Sulfacetamide,CC(=O)NS(=O)(=O)C1=CC=C(C=C1)N,182,5129,http://dx.doi.org/10.1016/j.chemosphere.2013.10.095,Abraham M.H. and Acree Jr. W.E. The solubility of liquid and solid compounds in dry octan-1-ol. Chemosphere (2013),7,182,183,1
15870,Isonicotinohydrazide,O=C(NN)c1ccncc1,171,3635,http://msds.chem.ox.ac.uk/,academic website,8,171,172,1