key,name,smiles,mpC,csid,link,source,count,min,max,range
15400,4-(2-Phenylpropan-2-yl)phenol,CC(C)(c1ccc(O)cc1)c2ccccc2,71.5,11249,http://msds.chem.ox.ac.uk/,academic website,4,70,75,5
14821,(4-Chlorophenyl)methanol,OCc1ccc(Cl)cc1,71,12823,http://msds.chem.ox.ac.uk/,academic website,4,70,75,5
15073,1-Nitro-3-vinylbenzene,O=[N+]([O-])c1cc(C=C)ccc1,-5,61789,http://msds.chem.ox.ac.uk/,academic website,4,-10,-5,5
15130,"2,2-Dimethylpropane-1,3-diol",CC(C)(CO)CO,125,13835293,http://msds.chem.ox.ac.uk/,academic website,4,125,130,5
16547,Diflunisal,OC(=O)c1cc(ccc1O)c2ccc(F)cc2F,215.5,2951,http://www.drugbank.ca/drugs/DB00861,DrugBank,5,210.5,215.5,5
15616,"beta,beta-Carotene",CC=2CCC[C@](C)(C)C=2/C=CC(C)=CC=CC(C)=CC=CC=C(/C)C=CC=C(/C)C=CC1=C(C)CCC[C@@]1(C)C,178,4444129,http://msds.chem.ox.ac.uk/,academic website,5,178,183,5
27698,4-Nitrobenzoic acid,C1=CC(=CC=C1C(=O)O)[N+](=O)[O-],240,5882,http://dx.doi.org/10.1016/j.chemosphere.2013.10.095,Abraham M.H. and Acree Jr. W.E. The solubility of liquid and solid compounds in dry octan-1-ol. Chemosphere (2013),6,237,242,5
28584,Thalidomide,C1CC(=O)NC(=O)C1N2C(=O)C3=CC=CC=C3C2=O,275,5233,http://dx.doi.org/10.1016/j.chemosphere.2013.10.095,Abraham M.H. and Acree Jr. W.E. The solubility of liquid and solid compounds in dry octan-1-ol. Chemosphere (2013),7,270,275,5
28068,Estradiol,C[C@]12CC[C@H]3[C@H]([C@@H]1CC[C@@H]2O)CCC4=C3C=CC(=C4)O,176,5554,http://dx.doi.org/10.1016/j.chemosphere.2013.10.095,Abraham M.H. and Acree Jr. W.E. The solubility of liquid and solid compounds in dry octan-1-ol. Chemosphere (2013),7,173,178,5
27580,"2,4,6-Trichlorophenol",C1=C(C=C(C(=C1Cl)O)Cl)Cl,65,21106172,http://dx.doi.org/10.1016/j.chemosphere.2013.10.095,Abraham M.H. and Acree Jr. W.E. The solubility of liquid and solid compounds in dry octan-1-ol. Chemosphere (2013),9,65,70,5
1059,2-(trifluoromethyl)aniline,c1ccc(c(c1)C(F)(F)F)N,-34,6656,http://www.alfa.com/en/GP100W.pgm?DSSTK=A15072,Alfa Aesar,3,-34,-29,5