key,name,smiles,mpC,csid,link,source,count,min,max,range
13632,"2,2-dimethyl-3-ethylpentane",CCC(CC)C(C)(C)C,-99,26068,http://www.amazon.com/dp/B002IYRJWI,American Petroleum Institute. Research Project 44; Selected Values of Properties of Hydrocarbons and Related Compounds. Texas A & M University; College Station; TX; 1973.,2,-99.3,-99,0.3
5155,4-fluorobenzotrifluoride,c1cc(ccc1C(F)(F)F)F,-42,61190,http://www.alfa.com/en/GP100W.pgm?DSSTK=A13377,Alfa Aesar,2,-42,-41.7,0.3
13133,3-methyl-1-butyne,C#CC(C)C,-90,62241,http://www.amazon.com/dp/B002IYRJWI,American Petroleum Institute. Research Project 44; Selected Values of Properties of Hydrocarbons and Related Compounds. Texas A & M University; College Station; TX; 1973.,2,-90,-89.7,0.3
6357,allylcyclopentane,C=CCC1CCCC1,-111,69505,http://www.alfa.com/en/GP100W.pgm?DSSTK=B20228,Alfa Aesar,2,-111,-110.7,0.3
636,"1,3,5-benzenetricarbonyl chloride",c1c(cc(cc1C(=O)Cl)C(=O)Cl)C(=O)Cl,36,70514,http://www.alfa.com/en/GP100W.pgm?DSSTK=L07255,Alfa Aesar,2,36,36.3,0.3
13838,"2,4-dimethyl-3-isopropylpentane",CC(C)C(C(C)C)C(C)C,-82,452568,http://www.amazon.com/dp/B002IYRJWI,American Petroleum Institute. Research Project 44; Selected Values of Properties of Hydrocarbons and Related Compounds. Texas A & M University; College Station; TX; 1973.,2,-82,-81.7,0.3
13844,"2,2,3,4,4-pentamethylpentane",CC(C)(C)C(C)C(C)(C)C,-39,452969,http://www.amazon.com/dp/B002IYRJWI,American Petroleum Institute. Research Project 44; Selected Values of Properties of Hydrocarbons and Related Compounds. Texas A & M University; College Station; TX; 1973.,2,-39,-38.7,0.3
13280,2-methyl-3-hexyne,CCC#CC(C)C,-117,454272,http://www.amazon.com/dp/B002IYRJWI,American Petroleum Institute. Research Project 44; Selected Values of Properties of Hydrocarbons and Related Compounds. Texas A & M University; College Station; TX; 1973.,2,-117,-116.7,0.3
13307,4-methyl-trans-2-hexene,CC=CC(C)CC,-126,4512638,http://www.amazon.com/dp/B002IYRJWI,American Petroleum Institute. Research Project 44; Selected Values of Properties of Hydrocarbons and Related Compounds. Texas A & M University; College Station; TX; 1973.,2,-126,-125.7,0.3
13309,5-methyl-trans-2-hexene,CC(C)CC=CC,-124,4512641,http://www.amazon.com/dp/B002IYRJWI,American Petroleum Institute. Research Project 44; Selected Values of Properties of Hydrocarbons and Related Compounds. Texas A & M University; College Station; TX; 1973.,2,-124.3,-124,0.3
13818,1-chloro-2-ethylbenzene,CCc1ccccc1Cl,-83,21111805,http://www.questia.com/library/book/physical_properties_of_chemical_compounds_by_robert_rickert_dreisbach.jsp,Dreisbach R. R. Physical Properties of Chemical Compounds; Vol. I; American Chemical Society; Washington; 1955.,2,-83,-82.7,0.3
15643,Butan-2-ol,CC(O)CC,-115,6320,http://msds.chem.ox.ac.uk/,academic website,3,-115,-114.7,0.3
64,1-propanethiol,CCCS,-113,7560,http://www.alfa.com/en/GP100W.pgm?DSSTK=43420,Alfa Aesar,3,-113.3,-113,0.3
1339,"2,4,4-trimethyl-2-pentene",CC(=CC(C)(C)C)C,-106,7581,http://www.alfa.com/en/GP100W.pgm?DSSTK=B20773,Alfa Aesar,3,-106.3,-106,0.3
13661,ethyl_isovalerate,CC(C)CC(=O)OCC,-99,7657,http://www.amazon.com/dp/B003XEQTLE,Aldrich Chemical Company; Aldrich Catalog-Handbook of Fine Chemicals; Milwaukee; WI; 1984.,3,-99.3,-99,0.3
80,1-pentanethiol,CCCCCS,-76,7776,http://www.alfa.com/en/GP100W.pgm?DSSTK=L04330,Alfa Aesar,3,-76,-75.7,0.3
274,1-bromohexane,CCCCCCBr,-85,7810,http://www.alfa.com/en/GP100W.pgm?DSSTK=A15166,Alfa Aesar,3,-85,-84.7,0.3
13104,2-butyne,CC#CC,-32,9990,http://www.amazon.com/dp/B003XEQTLE,Aldrich Chemical Company; Aldrich Catalog-Handbook of Fine Chemicals; Milwaukee; WI; 1984.,3,-32.3,-32,0.3
15710,Dibutyl sulfide,CCCCSCCCC,-80,10536,http://msds.chem.ox.ac.uk/,academic website,3,-80,-79.7,0.3
5084,4-ethyltoluene,CCc1ccc(cc1)C,-62,11660,http://www.alfa.com/en/GP100W.pgm?DSSTK=L02120,Alfa Aesar,3,-62.3,-62,0.3
3009,2-pentyne,CCC#CC,-109,11807,http://www.alfa.com/en/GP100W.pgm?DSSTK=L02973,Alfa Aesar,3,-109.3,-109,0.3
15295,2-Methyloctane,CC(C)CCCCCC,-80,17558,http://msds.chem.ox.ac.uk/,academic website,3,-80.3,-80,0.3
8776,benzarone,CCc2oc1ccccc1c2C(=O)c3ccc(O)cc3,124,224468,http://dx.doi.org/10.1021/ci020280x,Bergstrom C. A. S.; Norinder U.; Luthman K.; Artursson P. Molecular Descriptors Influencing Melting Point and Their Role in Classification of Solid Drugs. J. Chem. Inf. Comput. Sci.; (Article); 2003; 43(4); 1177-1222,3,124,124.3,0.3
14895,"1,1,2-Trichloroethene",ClC=C(/Cl)Cl,-85,13837280,http://msds.chem.ox.ac.uk/,academic website,3,-85,-84.7,0.3
13936,benzyl_acetate,CC(=O)OCc1ccccc1,-51,13850405,http://www.amazon.com/dp/B003XEQTLE,Aldrich Chemical Company; Aldrich Catalog-Handbook of Fine Chemicals; Milwaukee; WI; 1984.,3,-51.3,-51,0.3
6352,allyl iodide,C=CCI,-99,21171407,http://www.alfa.com/en/GP100W.pgm?DSSTK=A11822,Alfa Aesar,3,-99.3,-99,0.3
15719,Diethyl ether,CCOCC,-116,3168,http://msds.chem.ox.ac.uk/,academic website,4,-116.3,-116,0.3
15889,Mesitylene,Cc1cc(C)cc(C)c1,-45,7659,http://msds.chem.ox.ac.uk/,academic website,4,-45,-44.7,0.3
15647,Butane-1-thiol,CCCCS,-116,7721,http://msds.chem.ox.ac.uk/,academic website,4,-116,-115.7,0.3
15830,Heptanal,CCCCCCC=O,-43,7838,http://msds.chem.ox.ac.uk/,academic website,4,-43.3,-43,0.3
15121,"2,2,4-Trimethylpentane",CC(C)CC(C)(C)C,-107,10445,http://msds.chem.ox.ac.uk/,academic website,4,-107.3,-107,0.3
15048,1-Iodopropane,CCCI,-101,31029,http://msds.chem.ox.ac.uk/,academic website,4,-101.3,-101,0.3
15696,Dec-1-ene,CCCCCCCCC=C,-66,12809,http://msds.chem.ox.ac.uk/,academic website,5,-66.3,-66,0.3
15847,Hexane,CCCCCC,-95,7767,http://msds.chem.ox.ac.uk/,academic website,6,-95.3,-95,0.3
6587,bromotrichloromethane,C(Cl)(Cl)(Cl)Br,-6,6143,http://www.alfa.com/en/GP100W.pgm?DSSTK=A10824,Alfa Aesar,2,-6,-5.7,0.3
14668,2-methylheptadecane,CC(C)CCCCCCCCCCCCCCC,6,14530,http://www.amazon.com/dp/B002IYRJWI,American Petroleum Institute. Research Project 44; Selected Values of Properties of Hydrocarbons and Related Compounds. Texas A & M University; College Station; TX; 1973.,2,5.7,6,0.3
7459,methoxyacetic acid,COCC(=O)O,8,11750,http://www.alfa.com/en/GP100W.pgm?DSSTK=B22917,Alfa Aesar,3,7.7,8,0.3
16172,Tridecane,CCCCCCCCCCCCC,-5,11882,http://msds.chem.ox.ac.uk/,academic website,4,-5.3,-5,0.3
15783,Ethaneperoxoic acid,CC(=O)OO,0.1,6336,http://msds.chem.ox.ac.uk/,academic website,2,-0.2,0.1,0.3
14582,decylcyclohexane,CCCCCCCCCCC1CCCCC1,-2,14942,http://www.amazon.com/dp/B002IYRJWI,American Petroleum Institute. Research Project 44; Selected Values of Properties of Hydrocarbons and Related Compounds. Texas A & M University; College Station; TX; 1973.,2,-2,-1.7,0.3
14630,o-chloroiodobenzene,Ic1ccccc1Cl,1,21171406,http://www.amazon.com/dp/B003XEQTLE,Aldrich Chemical Company; Aldrich Catalog-Handbook of Fine Chemicals; Milwaukee; WI; 1984.,3,0.7,1,0.3
14566,1-chlorododecane,CCCCCCCCCCCCCl,-9,7900,http://www.questia.com/library/book/physical_properties_of_chemical_compounds_by_robert_rickert_dreisbach.jsp,Dreisbach R. R. Physical Properties of Chemical Compounds; Vol. III; American Chemical Society; Washington; 1961.,2,-9.3,-9,0.3
13729,"1,2,3,5-tetramethylbenzene",Cc1cc(C)c(C)c(C)c1,-24,10245,http://www.amazon.com/dp/B002IYRJWI,American Petroleum Institute. Research Project 44; Selected Values of Properties of Hydrocarbons and Related Compounds. Texas A & M University; College Station; TX; 1973.,2,-24,-23.7,0.3
3738,3-bromopyridine,c1cc(cnc1)Br,-27,11783,http://www.alfa.com/en/GP100W.pgm?DSSTK=A12894,Alfa Aesar,2,-27.3,-27,0.3
14247,1-chlorodecane,CCCCCCCCCCCl,-31,13248,http://www.questia.com/library/book/physical_properties_of_chemical_compounds_by_robert_rickert_dreisbach.jsp,Dreisbach R. R. Physical Properties of Chemical Compounds; Vol. III; American Chemical Society; Washington; 1961.,2,-31.3,-31,0.3
7209,ethyl tetradecanoate,CCCCCCCCCCCCCC(=O)OCC,12,29023,http://www.alfa.com/en/GP100W.pgm?DSSTK=A11646,Alfa Aesar,2,12,12.3,0.3
14680,"1,1,2-tribromoethane",BrC(Br)CBr,-29,59607,http://www.questia.com/library/book/physical_properties_of_chemical_compounds_by_robert_rickert_dreisbach.jsp,Dreisbach R. R. Physical Properties of Chemical Compounds; Vol. III; American Chemical Society; Washington; 1961.,2,-29.3,-29,0.3
480,"1,4-difluoro-2-nitrobenzene",c1cc(c(cc1F)[N+](=O)[O-])F,-12,61086,http://www.alfa.com/en/GP100W.pgm?DSSTK=A11807,Alfa Aesar,2,-12,-11.7,0.3
8474,tetrachloroethylene,C(=C(Cl)Cl)(Cl)Cl,-22,13837281,http://www.alfa.com/en/GP100W.pgm?DSSTK=32437,Alfa Aesar,2,-22.3,-22,0.3
14004,p-chlorocumene,CC(C)c1ccc(Cl)cc1,-12,21159680,http://www.questia.com/library/book/physical_properties_of_chemical_compounds_by_robert_rickert_dreisbach.jsp,Dreisbach R. R. Physical Properties of Chemical Compounds; Vol. I; American Chemical Society; Washington; 1955.,2,-12.3,-12,0.3
7380,isopropyl acetoacetate,CC(C)OC(=O)CC(=O)C,-27,21171506,http://www.alfa.com/en/GP100W.pgm?DSSTK=A11907,Alfa Aesar,2,-27.3,-27,0.3
14702,m-bromoiodobenzene,Ic1cccc(Br)c1,-9,11073,http://www.amazon.com/dp/B003XEQTLE,Aldrich Chemical Company; Aldrich Catalog-Handbook of Fine Chemicals; Milwaukee; WI; 1984.,3,-9.3,-9,0.3
7343,iodobenzene,c1ccc(cc1)I,-31,11087,http://www.alfa.com/en/GP100W.pgm?DSSTK=A12788,Alfa Aesar,3,-31.3,-31,0.3
148,1-iododecane,CCCCCCCCCCI,-16,15480,http://www.alfa.com/en/GP100W.pgm?DSSTK=A16173,Alfa Aesar,3,-16.3,-16,0.3
15611,Benzonitrile,N#Cc1ccccc1,-13,7224,http://msds.chem.ox.ac.uk/,academic website,4,-13,-12.7,0.3
15702,Decane,CCCCCCCCCC,-30,14840,http://msds.chem.ox.ac.uk/,academic website,6,-30,-29.7,0.3
8177,o-benzoic sulfimide,c1ccc2c(c1)C(=O)NS2(=O)=O,229,4959,http://www.alfa.com/en/GP100W.pgm?DSSTK=B23938,Alfa Aesar,2,229,229.3,0.3
21501,p-methylsulfonylamphenicol,O=S(C)(=O)c1ccc(cc1)C(O)C(CO)NC(=O)C(Cl)Cl,165,5240,http://www.srcinc.com/what-we-do/product.aspx?id=133,PHYSPROP,2,165,165.3,0.3
15664,Chloroethane,CCCl,-139,6097,http://msds.chem.ox.ac.uk/,academic website,2,-139,-138.7,0.3
8199,o-toluenesulfonamide,Cc1ccccc1S(=O)(=O)N,156,6658,http://www.alfa.com/en/GP100W.pgm?DSSTK=B20544,Alfa Aesar,2,156,156.3,0.3
1965,2-amino-4-methylpyrimidine,Cc1ccnc(n1)N,160,7651,http://www.alfa.com/en/GP100W.pgm?DSSTK=A16081,Alfa Aesar,2,160,160.3,0.3
13298,"cis-1,3-dimethylcyclopentane",C[C@@H]1CC[C@H](C)C1,-134,16396,http://www.amazon.com/dp/B002IYRJWI,American Petroleum Institute. Research Project 44; Selected Values of Properties of Hydrocarbons and Related Compounds. Texas A & M University; College Station; TX; 1973.,2,-134,-133.7,0.3
13299,"2,3-dimethyl-1-pentene",C=C(C)C(C)CC,-134,17800,http://www.amazon.com/dp/B002IYRJWI,American Petroleum Institute. Research Project 44; Selected Values of Properties of Hydrocarbons and Related Compounds. Texas A & M University; College Station; TX; 1973.,2,-134.3,-134,0.3
13300,"3,3-dimethyl-1-pentene",C=CC(C)(C)CC,-134,17801,http://www.amazon.com/dp/B002IYRJWI,American Petroleum Institute. Research Project 44; Selected Values of Properties of Hydrocarbons and Related Compounds. Texas A & M University; College Station; TX; 1973.,2,-134.3,-134,0.3
14476,m-bromobenzamide,O=C(N)c1cc(Br)ccc1,155,81061,http://de.wikipedia.org/wiki/Beilsteins_Handbuch_der_Organischen_Chemie,Beilstein F. K.; Beilsteins Handbuch der Organischen Chemie. Springer; Berlin; 1972.,2,155,155.3,0.3
16824,Pentazocine,C/C(C)=CCN1CC[C@@]2(C)c3cc(O)ccc3C[C@@H]1[C@@H]2C,146.3,390041,http://www.drugbank.ca/drugs/DB00652,DrugBank,2,146,146.3,0.3
28589,Thianthrene,C1=CC=C2C(=C1)SC3=CC=CC=C3S2,159,6842,http://dx.doi.org/10.1016/j.chemosphere.2013.10.095,Abraham M.H. and Acree Jr. W.E. The solubility of liquid and solid compounds in dry octan-1-ol. Chemosphere (2013),3,159,159.3,0.3
1309,"2,3-dimethyl-1-butene",CC(C)C(=C)C,-157,10775,http://www.alfa.com/en/GP100W.pgm?DSSTK=L05675,Alfa Aesar,3,-157.3,-157,0.3
440,"1,5-hexadiene",C=CCCC=C,-141,11110,http://www.alfa.com/en/GP100W.pgm?DSSTK=A13650,Alfa Aesar,3,-141,-140.7,0.3
2858,2-methyl-1-pentene,CCCC(=C)C,-136,12446,http://www.alfa.com/en/GP100W.pgm?DSSTK=H53373,Alfa Aesar,3,-136,-135.7,0.3
15299,2-Methylpentane,CC(C)CCC,-154,7604,http://msds.chem.ox.ac.uk/,academic website,4,-154,-153.7,0.3
15291,2-Methylbut-2-ene,CC=C(/C)C,-134,10113,http://msds.chem.ox.ac.uk/,academic website,4,-134,-133.7,0.3
28384,PCB-15,C1=CC(=CC=C1C2=CC=C(C=C2)Cl)Cl,149,15474,http://dx.doi.org/10.1016/j.chemosphere.2013.10.095,Abraham M.H. and Acree Jr. W.E. The solubility of liquid and solid compounds in dry octan-1-ol. Chemosphere (2013),4,149,149.3,0.3
8858,metoclopramide,CCN(CC)CCNC(=O)c1cc(Cl)c(N)cc1OC,147,4024,http://dx.doi.org/10.1021/ci020280x,Bergstrom C. A. S.; Norinder U.; Luthman K.; Artursson P. Molecular Descriptors Influencing Melting Point and Their Role in Classification of Solid Drugs. J. Chem. Inf. Comput. Sci.; (Article); 2003; 43(4); 1177-1304,5,147,147.3,0.3
16064,Pentane,CCCCC,-130,7712,http://msds.chem.ox.ac.uk/,academic website,5,-130,-129.7,0.3
15952,"N,N-Diethylethanamine",CCN(CC)CC,-115,8158,http://msds.chem.ox.ac.uk/,academic website,9,-115,-114.7,0.3
7249,formic acid,C(=O)O,8,278,http://www.alfa.com/en/GP100W.pgm?DSSTK=36617,Alfa Aesar,4,8,8.32,0.32
8717,valeric acid,CCCCC(=O)O,-34,7701,http://www.alfa.com/en/GP100W.pgm?DSSTK=A16238,Alfa Aesar,7,-34,-33.66,0.34
15635,But-1-ene,C=CCC,-185,7556,http://msds.chem.ox.ac.uk/,academic website,3,-185.35,-185,0.35
15806,Ethylene,C=C,-169,6085,http://msds.chem.ox.ac.uk/,academic website,4,-169.35,-169,0.35
27240,"5-Methyl-1,3,4-thiadiazol-2-amine",n1nc(sc1C)N,224.85,60308,http://scripts.iucr.org/cgi-bin/paper?gg1069,IUCr,2,224.5,224.85,0.35
13361,3-methyl-3-pentanol,CC(O)(CC)CC,-24,6248,http://www.amazon.com/dp/B002IYRJWI,American Petroleum Institute. Research Project 44; Selected Values of Properties of Hydrocarbons and Related Compounds. Texas A & M University; College Station; TX; 1973.,2,-24,-23.6,0.4
16174,Triethyl phosphate,CCOP(=O)(OCC)OCC,-56,6287,http://msds.chem.ox.ac.uk/,academic website,2,-56.4,-56,0.4
15039,1H-Pyrrole,c1cccn1,-23,7736,http://msds.chem.ox.ac.uk/,academic website,2,-23.4,-23,0.4
7324,indane,c1ccc2c(c1)CCC2,-51,9903,http://www.alfa.com/en/GP100W.pgm?DSSTK=B21442,Alfa Aesar,2,-51.4,-51,0.4
5408,4-methylcyclohexanone,CC1CCC(=O)CC1,-41,11041,http://www.alfa.com/en/GP100W.pgm?DSSTK=A13186,Alfa Aesar,2,-41,-40.6,0.4
19118,2-methyl-2-heptanol,CC(C)(O)CCCCC,-50.4,11741,http://www.srcinc.com/what-we-do/product.aspx?id=133,PHYSPROP,2,-50.4,-50,0.4
1673,"2,5-dimethylthiophene",Cc1ccc(s1)C,-63,11998,http://www.alfa.com/en/GP100W.pgm?DSSTK=A10869,Alfa Aesar,2,-63,-62.6,0.4
13719,1-methyl-4-propylbenzene,CCCc1ccc(C)cc1,-64,13473,http://www.amazon.com/dp/B002IYRJWI,American Petroleum Institute. Research Project 44; Selected Values of Properties of Hydrocarbons and Related Compounds. Texas A & M University; College Station; TX; 1973.,2,-64,-63.6,0.4
6934,di-n-butyl sulfoxide,CCCCS(=O)CCCC,33,15708,http://www.alfa.com/en/GP100W.pgm?DSSTK=B23672,Alfa Aesar,2,32.6,33,0.4
14082,1-chlorononane,CCCCCCCCCCl,-39,16268,http://www.questia.com/library/book/physical_properties_of_chemical_compounds_by_robert_rickert_dreisbach.jsp,Dreisbach R. R. Physical Properties of Chemical Compounds; Vol. III; American Chemical Society; Washington; 1961.,2,-39.4,-39,0.4
13677,2-octanol,CC(O)CCCCCC,-32,18920,http://www.amazon.com/dp/B002IYRJWI,American Petroleum Institute. Research Project 44; Selected Values of Properties of Hydrocarbons and Related Compounds. Texas A & M University; College Station; TX; 1973.,2,-32,-31.6,0.4
13452,"1,1,2-trimethylcyclopentane",CC1CCCC1(C)C,-22,32553,http://www.amazon.com/dp/B002IYRJWI,American Petroleum Institute. Research Project 44; Selected Values of Properties of Hydrocarbons and Related Compounds. Texas A & M University; College Station; TX; 1973.,2,-22,-21.6,0.4
8070,N-hexyl formate,CCCCCCOC=O,-63,55123,http://www.alfa.com/en/GP100W.pgm?DSSTK=L06226,Alfa Aesar,2,-63,-62.6,0.4
13845,"2,2,3,3,4-pentamethylpentane",CC(C)(C)C(C)(C)C(C)C,-36,452968,http://www.amazon.com/dp/B002IYRJWI,American Petroleum Institute. Research Project 44; Selected Values of Properties of Hydrocarbons and Related Compounds. Texas A & M University; College Station; TX; 1973.,2,-36.4,-36,0.4
7200,ethyl phenylacetate,CCOC(=O)Cc1ccccc1,-29,13885245,http://www.alfa.com/en/GP100W.pgm?DSSTK=A19356,Alfa Aesar,2,-29.4,-29,0.4
2940,2-methylthiophene,Cc1cccs1,-63,21168808,http://www.alfa.com/en/GP100W.pgm?DSSTK=A12736,Alfa Aesar,2,-63.4,-63,0.4
13824,1-chloro-4-ethylbenzene,CCc1ccc(Cl)cc1,-63,21242799,http://www.questia.com/library/book/physical_properties_of_chemical_compounds_by_robert_rickert_dreisbach.jsp,Dreisbach R. R. Physical Properties of Chemical Compounds; Vol. I; American Chemical Society; Washington; 1955.,2,-63,-62.6,0.4
15818,Glycerol,OCC(O)CO,17.8,733,http://msds.chem.ox.ac.uk/,academic website,3,17.8,18.2,0.4
13939,butyl_phenyl_ether,CCCCOc1ccccc1,-19,13673,http://www.amazon.com/dp/B003XEQTLE,Aldrich Chemical Company; Aldrich Catalog-Handbook of Fine Chemicals; Milwaukee; WI; 1984.,3,-19.4,-19,0.4
4208,3-tert-butyltoluene,Cc1cccc(c1)C(C)(C)C,-41,31082,http://www.alfa.com/en/GP100W.pgm?DSSTK=H32668,Alfa Aesar,3,-41.4,-41,0.4
492,"1,4-dibromopentane",CC(CCCBr)Br,-34,71414,http://www.alfa.com/en/GP100W.pgm?DSSTK=L09842,Alfa Aesar,3,-34.4,-34,0.4
16101,Pyridine,c1ccccn1,-42,1020,http://msds.chem.ox.ac.uk/,academic website,4,-42,-41.6,0.4
15630,Bromobenzene,Brc1ccccc1,-31,7673,http://msds.chem.ox.ac.uk/,academic website,4,-31,-30.6,0.4
14912,"1,2,3-Trimethylbenzene",Cc1cccc(C)c1C,-25,10236,http://msds.chem.ox.ac.uk/,academic website,4,-25.4,-25,0.4
16199,Undecane,CCCCCCCCCCC,-26,13619,http://msds.chem.ox.ac.uk/,academic website,4,-26,-25.6,0.4
15567,Acetic acid,CC(=O)O,16.7,171,http://msds.chem.ox.ac.uk/,academic website,5,16.6,17,0.4
8231,pentafluorobenzonitrile,C(#N)c1c(c(c(c(c1F)F)F)F)F,2,63077,http://www.alfa.com/en/GP100W.pgm?DSSTK=A13575,Alfa Aesar,2,2,2.4,0.4
1471,"2,4-dichlorobenzyl chloride",c1cc(c(cc1Cl)Cl)CCl,-3,6942,http://www.alfa.com/en/GP100W.pgm?DSSTK=A11435,Alfa Aesar,3,-3,-2.6,0.4
15292,2-Methylbut-3-yn-2-ol,C#CC(C)(C)O,2.6,21106133,http://msds.chem.ox.ac.uk/,academic website,3,2.6,3,0.4
624,"1,3,5-triisopropylbenzene",CC(C)c1cc(cc(c1)C(C)C)C(C)C,-7,12329,http://www.alfa.com/en/GP100W.pgm?DSSTK=A13453,Alfa Aesar,2,-7.4,-7,0.4
13850,"2,2,5,5-tetramethylhexane",CC(C)(C)CCC(C)(C)C,-13,13448,http://www.amazon.com/dp/B002IYRJWI,American Petroleum Institute. Research Project 44; Selected Values of Properties of Hydrocarbons and Related Compounds. Texas A & M University; College Station; TX; 1973.,2,-13,-12.6,0.4
8720,valerophenone,CCCCC(=O)c1ccccc1,-9,59482,http://www.alfa.com/en/GP100W.pgm?DSSTK=A10525,Alfa Aesar,2,-9.4,-9,0.4
14319,2-methyldiphenylmethane,Cc2ccccc2Cc1ccccc1,7,62938,http://www.amazon.com/dp/B002IYRJWI,American Petroleum Institute. Research Project 44; Selected Values of Properties of Hydrocarbons and Related Compounds. Texas A & M University; College Station; TX; 1973.,2,6.6,7,0.4
4275,4-(aminomethyl)pyridine,c1cnccc1CN,-8,69736,http://www.alfa.com/en/GP100W.pgm?DSSTK=L06345,Alfa Aesar,2,-8,-7.6,0.4
6859,diethylene glycol,C(COCCO)O,-10,13835180,http://www.alfa.com/en/GP100W.pgm?DSSTK=A14728,Alfa Aesar,2,-10.4,-10,0.4
15705,Decylbenzene,CCCCCCCCCCc1ccccc1,-14,7430,http://msds.chem.ox.ac.uk/,academic website,3,-14.4,-14,0.4
3832,3-chloroaniline,c1cc(cc(c1)Cl)N,-10,13869451,http://www.alfa.com/en/GP100W.pgm?DSSTK=A12019,Alfa Aesar,3,-10.4,-10,0.4
15767,Dodecane,CCCCCCCCCCCC,-9.6,7890,http://msds.chem.ox.ac.uk/,academic website,5,-10,-9.6,0.4
15892,Methanamine,CN,-93,6089,http://msds.chem.ox.ac.uk/,academic website,2,-93.4,-93,0.4
16142,Tetrafluoromethane,FC(F)(F)F,-184,6153,http://msds.chem.ox.ac.uk/,academic website,2,-184,-183.6,0.4
248,1-chloro-3-methylbutane,CC(C)CCCl,-104,7605,http://www.alfa.com/en/GP100W.pgm?DSSTK=L11371,Alfa Aesar,2,-104.4,-104,0.4
7379,isopropyl acetate,CC(C)OC(=O)C,-73,7627,http://www.alfa.com/en/GP100W.pgm?DSSTK=L09337,Alfa Aesar,2,-73.4,-73,0.4
15301,2-Methylprop-1-ene,C=C(C)C,-140,7957,http://msds.chem.ox.ac.uk/,academic website,2,-140.4,-140,0.4