key,name,smiles,mpC,csid,link,source,count,min,max,range
6013,5-nitroisoquinoline,c1cc2cnccc2c(c1)[N+](=O)[O-],108,62303,http://www.alfa.com/en/GP100W.pgm?DSSTK=A15311,Alfa Aesar,2,108,110,2
7067,ethyl 2-nitrobenzoate,CCOC(=O)c1ccccc1[N+](=O)[O-],28,62340,http://www.alfa.com/en/GP100W.pgm?DSSTK=A19994,Alfa Aesar,2,28,30,2
5251,4-hydroxyquinoline,c1ccc2c(c1)c(ccn2)O,203,62357,http://www.alfa.com/en/GP100W.pgm?DSSTK=A15859,Alfa Aesar,2,201,203,2
13803,"1,2-benzenedimethanol",OCc1ccccc1CO,64,62368,http://www.amazon.com/dp/B003XEQTLE,Aldrich Chemical Company; Aldrich Catalog-Handbook of Fine Chemicals; Milwaukee; WI; 1984.,2,62,64,2
6906,dimethyl itaconate,COC(=O)CC(=C)C(=O)OC,36,62453,http://www.alfa.com/en/GP100W.pgm?DSSTK=L12652,Alfa Aesar,2,36,38,2
7078,"ethyl 3,5-dinitrobenzoate",CCOC(=O)c1cc(cc(c1)[N+](=O)[O-])[N+](=O)[O-],92,62468,http://www.alfa.com/en/GP100W.pgm?DSSTK=B21582,Alfa Aesar,2,92,94,2
7745,m-xylylene dibromide,BrCc1cccc(c1)CBr,75,62581,http://www.alfa.com/en/GP100W.pgm?DSSTK=B24959,Alfa Aesar,2,75,77,2
3000,2-nonadecanone,CCCCCCCCCCCCCCCCCC(=O)C,55,62631,http://www.alfa.com/en/GP100W.pgm?DSSTK=B21178,Alfa Aesar,2,55,57,2
1003,2-(carboxymethoxy)benzoic acid,c1ccc(c(c1)C(=O)O)OCC(=O)O,189,62668,http://www.alfa.com/en/GP100W.pgm?DSSTK=L13135,Alfa Aesar,2,189,191,2
8162,N-tetradecanamide,CCCCCCCCCCCCCC(=O)N,106,62698,http://www.alfa.com/en/GP100W.pgm?DSSTK=B22610,Alfa Aesar,2,104,106,2
1861,2-acetyl-1-naphthol,CC(=O)c1ccc2ccccc2c1O,99,62933,http://www.alfa.com/en/GP100W.pgm?DSSTK=A19532,Alfa Aesar,2,99,101,2
14378,p-bromobenzyl alcohol,OCc1ccc(Br)cc1,76,63307,http://www.amazon.com/dp/B003XEQTLE,Aldrich Chemical Company; Aldrich Catalog-Handbook of Fine Chemicals; Milwaukee; WI; 1984.,2,76,78,2
6068,6-azathymine,Cc1c(=O)[nH]c(=O)[nH]n1,213,63453,http://www.alfa.com/en/GP100W.pgm?DSSTK=L06762,Alfa Aesar,2,211,213,2
12802,"5,6-Dichlor-2-benzofuran-1,3-dion",Clc1cc2c(cc1Cl)C(=O)OC2=O,186,63515,http://dx.doi.org/10.1021/ci0500132,Karthikeyan M.; Glen R.C.; Bender A. General melting point prediction based on a diverse compound dataset and artificial neural networks. J. Chem. Inf. Model.; 2005; 45(3); 581-4384,2,186,188,2
1970,2-amino-4-tert-butylphenol,CC(C)(C)c1ccc(c(c1)N)O,163,64143,http://www.alfa.com/en/GP100W.pgm?DSSTK=B22964,Alfa Aesar,2,161,163,2
15422,"4,7-Diphenyl-1,10-phenanthroline",c2cc1c(ccnc1c3nccc(c23)c4ccccc4)c5ccccc5,218,65648,http://msds.chem.ox.ac.uk/,academic website,2,218,220,2
5060,4'-ethoxyacetophenone,CCOc1ccc(cc1)C(=O)C,37,65704,http://www.alfa.com/en/GP100W.pgm?DSSTK=A11031,Alfa Aesar,2,37,39,2
3532,"3,5-di-tert-butyl-4-hydroxybenzaldehyde",CC(C)(C)c1cc(cc(c1O)C(C)(C)C)C=O,188,65974,http://www.alfa.com/en/GP100W.pgm?DSSTK=A15864,Alfa Aesar,2,186,188,2
4383,"4,4'-(hexafluoroisopropylidene)diphenol",c1cc(ccc1C(c2ccc(cc2)O)(C(F)(F)F)C(F)(F)F)O,160,66498,http://www.alfa.com/en/GP100W.pgm?DSSTK=A18370,Alfa Aesar,2,160,162,2
193,1-fluoro-2-nitrobenzene,c1ccc(c(c1)[N+](=O)[O-])F,-8,66528,http://www.alfa.com/en/GP100W.pgm?DSSTK=A13852,Alfa Aesar,2,-8,-6,2
6560,bis(diphenylphosphino)methane,c1ccc(cc1)P(CP(c2ccccc2)c3ccccc3)c4ccccc4,119,67509,http://www.alfa.com/en/GP100W.pgm?DSSTK=B21112,Alfa Aesar,2,119,121,2
5240,4-hydroxyindole,c1cc2c(cc[nH]2)c(c1)O,98,67953,http://www.alfa.com/en/GP100W.pgm?DSSTK=L14352,Alfa Aesar,2,98,100,2
3605,3-amino-4-chlorobenzoic acid,c1cc(c(cc1C(=O)O)N)Cl,216,68579,http://www.alfa.com/en/GP100W.pgm?DSSTK=A12671,Alfa Aesar,2,214,216,2
15108,"2,2'-(1,4-Phenylene)bis(4-methyl-5-phenyl-1,3-oxazole)",Cc2nc(oc2c1ccccc1)c3ccc(cc3)c4nc(C)c(o4)c5ccccc5,232,68961,http://msds.chem.ox.ac.uk/,academic website,2,232,234,2
1220,"2,3,5-tribromothiophene",c1c(c(sc1Br)Br)Br,27,69057,http://www.alfa.com/en/GP100W.pgm?DSSTK=A11761,Alfa Aesar,2,27,29,2
347,1-benzylimidazole,c1ccc(cc1)Cn2ccnc2,71,70309,http://www.alfa.com/en/GP100W.pgm?DSSTK=L00802,Alfa Aesar,2,69,71,2
2877,2-methyl-3-nitroanisole,Cc1c(cccc1OC)[N+](=O)[O-],53,70915,http://www.alfa.com/en/GP100W.pgm?DSSTK=L18792,Alfa Aesar,2,53,55,2
7485,methyl 2-amino-5-chlorobenzoate,COC(=O)c1cc(ccc1N)Cl,69,71213,http://www.alfa.com/en/GP100W.pgm?DSSTK=L20187,Alfa Aesar,2,67,69,2
4058,3-methoxybenzhydrazide,COc1cccc(c1)C(=O)NN,92,72141,http://www.alfa.com/en/GP100W.pgm?DSSTK=B20956,Alfa Aesar,2,92,94,2
3638,3-aminobenzyl alcohol,c1cc(cc(c1)N)CO,93,72534,http://www.alfa.com/en/GP100W.pgm?DSSTK=L07847,Alfa Aesar,2,93,95,2
14205,"3,5-dichlorobenzonitrile",Clc1cc(C#N)cc(Cl)c1,64,73125,http://www.amazon.com/dp/B003XEQTLE,Aldrich Chemical Company; Aldrich Catalog-Handbook of Fine Chemicals; Milwaukee; WI; 1984.,2,64,66,2
8531,thiophene-2-sulfonyl chloride,c1cc(sc1)S(=O)(=O)Cl,30,77127,http://www.alfa.com/en/GP100W.pgm?DSSTK=A15553,Alfa Aesar,2,28,30,2
24240,exo-2-endo-3-norbornanediol,OC2C1CCC(C1)C2O,141,77326,http://www.srcinc.com/what-we-do/product.aspx?id=133,PHYSPROP,2,139,141,2
197,1-ethynylcyclopentanol,C#CC1(CCCC1)O,25,78543,http://www.alfa.com/en/GP100W.pgm?DSSTK=B23109,Alfa Aesar,2,25,27,2
6296,9-fluorenylmethanol,c1ccc2c(c1)-c3ccccc3C2CO,104,81679,http://www.alfa.com/en/GP100W.pgm?DSSTK=A15212,Alfa Aesar,2,104,106,2
2370,2-chloro-5-(trifluoromethyl)pyridine,c1cc(ncc1C(F)(F)F)Cl,31,83365,http://www.alfa.com/en/GP100W.pgm?DSSTK=L08207,Alfa Aesar,2,31,33,2
6833,diethyl benzylidenemalonate,CCOC(=O)C(=Cc1ccccc1)C(=O)OCC,30,85490,http://www.alfa.com/en/GP100W.pgm?DSSTK=L00561,Alfa Aesar,2,30,32,2
1650,"2,5-dimethyl-1,3,4-thiadiazole",Cc1nnc(s1)C,63,87514,http://www.alfa.com/en/GP100W.pgm?DSSTK=A17227,Alfa Aesar,2,63,65,2
24633,"2,2,4-trimethyl-3-pentanol",CC(C)C(O)C(C)(C)C,-13,96641,http://www.srcinc.com/what-we-do/product.aspx?id=133,PHYSPROP,2,-13,-11,2
200,"1-ethylpiperazine-2,3-dione",CCN1CCNC(=O)C1=O,110,97850,http://www.alfa.com/en/GP100W.pgm?DSSTK=A18248,Alfa Aesar,2,108,110,2
5111,4-fluoro-2-nitrophenol,c1cc(c(cc1F)[N+](=O)[O-])O,75,120011,http://www.alfa.com/en/GP100W.pgm?DSSTK=A15847,Alfa Aesar,2,73,75,2
680,"1,2-dibenzoylethane",c1ccc(cc1)C(=O)CCC(=O)c2ccccc2,146,120096,http://www.alfa.com/en/GP100W.pgm?DSSTK=L08652,Alfa Aesar,2,144,146,2
6748,D-biotin,C1[C@H]2[C@@H]([C@@H](S1)CCCCC(=O)O)NC(=O)N2,230,149962,http://www.alfa.com/en/GP100W.pgm?DSSTK=A14207,Alfa Aesar,2,230,232,2
6182,6-nitrophthalide,c1cc2c(cc1[N+](=O)[O-])C(=O)OC2,143,194210,http://www.alfa.com/en/GP100W.pgm?DSSTK=B20375,Alfa Aesar,2,143,145,2
4028,3-iodobenzaldehyde,c1cc(cc(c1)I)C=O,56,221355,http://www.alfa.com/en/GP100W.pgm?DSSTK=L17447,Alfa Aesar,2,56,58,2
15136,"2,2'-Thiene-2,5-diylbis(5-tert-butyl-1,3-benzoxazole)",CC(C)(C)c1cc2nc(oc2cc1)c3ccc(s3)c4oc5ccc(cc5n4)C(C)(C)C,199,258050,http://msds.chem.ox.ac.uk/,academic website,2,199,201,2
7066,ethyl 2-methylthiazole-4-carboxylate,CCOC(=O)c1csc(n1)C,55,258907,http://www.alfa.com/en/GP100W.pgm?DSSTK=A12050,Alfa Aesar,2,55,57,2
8208,oxindole,c1ccc2c(c1)CC(=O)N2,126,284794,http://www.alfa.com/en/GP100W.pgm?DSSTK=A18764,Alfa Aesar,2,126,128,2
2685,2-hexynoic acid,CCCC#CC(=O)O,25,287294,http://www.alfa.com/en/GP100W.pgm?DSSTK=L02526,Alfa Aesar,2,25,27,2
1287,"2,3-difluorobenzoic acid",c1cc(c(c(c1)F)F)C(=O)O,162,328957,http://www.alfa.com/en/GP100W.pgm?DSSTK=A16717,Alfa Aesar,2,162,164,2
913,(1S)-camphor,C[C@]12CC[C@H](C1(C)C)CC2=O,178,392267,http://www.alfa.com/en/GP100W.pgm?DSSTK=B23469,Alfa Aesar,2,178,180,2
14798,"(2R,3R)-2,3-Dihydroxysuccinic acid",O=C(O)[C@H](O)[C@@H](O)C(O)=O,171,392277,http://msds.chem.ox.ac.uk/,academic website,2,169,171,2
1378,"2,4,6-trifluorobenzoic acid",c1c(cc(c(c1F)C(=O)O)F)F,141,453910,http://www.alfa.com/en/GP100W.pgm?DSSTK=A19758,Alfa Aesar,2,141,143,2
3725,3-bromobenzhydrazide,c1cc(cc(c1)Br)C(=O)NN,156,454393,http://www.alfa.com/en/GP100W.pgm?DSSTK=A19628,Alfa Aesar,2,156,158,2
1347,"2,4,5-trifluorobenzoic acid",c1c(c(cc(c1F)F)F)C(=O)O,98,454604,http://www.alfa.com/en/GP100W.pgm?DSSTK=A14193,Alfa Aesar,2,98,100,2
15154,"2,4,5,6-Tetrafluoroisophthalonitrile",Fc1c(C#N)c(F)c(C#N)c(F)c1F,79,528656,http://msds.chem.ox.ac.uk/,academic website,2,77,79,2
6677,coniferyl alcohol,COc1cc(ccc1O)/C=C/CO,76,1266063,http://www.alfa.com/en/GP100W.pgm?DSSTK=B24949,Alfa Aesar,2,74,76,2
7875,"N,N'-di-n-butylthiourea",CCCCNC(=S)NCCCC,66,2005824,http://www.alfa.com/en/GP100W.pgm?DSSTK=A16783,Alfa Aesar,2,64,66,2
11983,"3,17-dipropoxyandrostan-7-one",O=C1CC2CC(OCCC)CCC2(C)C2CCC3(C)C(CCC3OCCC)C12,161,2029604,http://dx.doi.org/10.1021/ci0500132,Karthikeyan M.; Glen R.C.; Bender A. General melting point prediction based on a diverse compound dataset and artificial neural networks. J. Chem. Inf. Model.; 2005; 45(3); 581-3565,2,161,163,2
15775,D-Ribose,O[C@@H](C=O)[C@H](O)[C@H](O)CO,82,4470639,http://msds.chem.ox.ac.uk/,academic website,2,82,84,2
9951,"Benzaldehyde, 4-nitro-, oxime",O=[N+]([O-])c1ccc(cc1)C=NO,130,4523938,http://dx.doi.org/10.1021/ci0500132,Karthikeyan M.; Glen R.C.; Bender A. General melting point prediction based on a diverse compound dataset and artificial neural networks. J. Chem. Inf. Model.; 2005; 45(3); 581-1533,2,128,130,2
7367,isonitrosoacetophenone,c1ccc(cc1)C(=O)/C=N/O,127,7840755,http://www.alfa.com/en/GP100W.pgm?DSSTK=L02098,Alfa Aesar,2,127,129,2
9237,N-p-Tolyl-benzamide,O=C(Nc1ccc(C)cc1)c1ccccc1,156,10274392,http://dx.doi.org/10.1021/ci0500132,Karthikeyan M.; Glen R.C.; Bender A. General melting point prediction based on a diverse compound dataset and artificial neural networks. J. Chem. Inf. Model.; 2005; 45(3); 581-819,2,156,158,2
14987,1-[(E)-Phenyldiazenyl]-2-naphthol,Oc3ccc1ccccc1c3/N=N/c2ccccc2,132,10296256,http://msds.chem.ox.ac.uk/,academic website,2,132,134,2
438,"1,5-pentanediol",C(CCO)CCO,-16,13839441,http://www.alfa.com/en/GP100W.pgm?DSSTK=A13998,Alfa Aesar,2,-18,-16,2
1110,"2,2'-bipyridine",c1ccnc(c1)c2ccccn2,70,13867714,http://www.alfa.com/en/GP100W.pgm?DSSTK=30569,Alfa Aesar,2,70,72,2
6757,dehydroacetic acid,CC1=CC(=O)C(C(=O)O1)C(=O)C,111,13887609,http://www.alfa.com/en/GP100W.pgm?DSSTK=A17827,Alfa Aesar,2,109,111,2
14960,"1,4-Anhydro-6-O-stearoyl-D-glucitol",O[C@H](COC(=O)CCCCCCCCCCCCCCCCC)[C@H]1OC[C@H](O)[C@H]1O,57,16736467,http://msds.chem.ox.ac.uk/,academic website,2,55,57,2
4392,"4,4'-bipyridine",c1cnccc1c2ccncc2,113,21105699,http://www.alfa.com/en/GP100W.pgm?DSSTK=A10187,Alfa Aesar,2,111,113,2
8390,quinoxaline,c1ccc2c(c1)nccn2,30,21106470,http://www.alfa.com/en/GP100W.pgm?DSSTK=A14055,Alfa Aesar,2,28,30,2
14489,m-bromonitrobenzene,O=[N+]([O-])c1cc(Br)ccc1,54,21111786,http://www.amazon.com/dp/B003XEQTLE,Aldrich Chemical Company; Aldrich Catalog-Handbook of Fine Chemicals; Milwaukee; WI; 1984.,2,54,56,2
1597,"2,5-dichlorobenzaldehyde",c1cc(c(cc1Cl)C=O)Cl,56,21111840,http://www.alfa.com/en/GP100W.pgm?DSSTK=A13525,Alfa Aesar,2,56,58,2
2262,"2-chloro-1,3-dinitrobenzene",c1cc(c(c(c1)[N+](=O)[O-])Cl)[N+](=O)[O-],86,21242790,http://www.alfa.com/en/GP100W.pgm?DSSTK=L04593,Alfa Aesar,2,86,88,2
27810,"b-Chlordane, trans-Chlordane",C1C2C(C(C1Cl)Cl)C3(C(=C(C2(C3(Cl)Cl)Cl)Cl)Cl)Cl,104,21429023,http://dx.doi.org/10.1016/j.chemosphere.2013.10.095,Abraham M.H. and Acree Jr. W.E. The solubility of liquid and solid compounds in dry octan-1-ol. Chemosphere (2013),2,104,106,2
1298,"2,3-dihydroxybenzoic acid",c1cc(c(c(c1)O)O)C(=O)O,206,18,http://www.alfa.com/en/GP100W.pgm?DSSTK=A10144,Alfa Aesar,3,204,206,2
14090,"2,5-dichlorophenol",Clc1ccc(Cl)c(O)c1,57,65,http://www.amazon.com/dp/B003XEQTLE,Aldrich Chemical Company; Aldrich Catalog-Handbook of Fine Chemicals; Milwaukee; WI; 1984.,3,57,59,2
13591,3-hydroxybenzyl_alcohol,OCc1cc(O)ccc1,72,100,http://www.amazon.com/dp/B003XEQTLE,Aldrich Chemical Company; Aldrich Catalog-Handbook of Fine Chemicals; Milwaukee; WI; 1984.,3,71,73,2
8290,pimelic acid,C(CCC(=O)O)CCC(=O)O,104,376,http://www.alfa.com/en/GP100W.pgm?DSSTK=A18495,Alfa Aesar,3,104,106,2
14037,m-chlorobenzoic_acid,OC(=O)c1cc(Cl)ccc1,156,434,http://www.amazon.com/dp/B003XEQTLE,Aldrich Chemical Company; Aldrich Catalog-Handbook of Fine Chemicals; Milwaukee; WI; 1984.,3,156,158,2
15886,Malic acid,O=C(O)C(O)CC(=O)O,130,510,http://msds.chem.ox.ac.uk/,academic website,3,130,132,2
16107,Quinolin-8-ol,Oc1cccc2cccnc12,76,1847,http://msds.chem.ox.ac.uk/,academic website,3,74,76,2
17030,Acetazolamide,O=S(N)(=O)c1nnc(NC(C)=O)s1,260.5,1909,http://www.drugbank.ca/drugs/DB00819,DrugBank,3,258.5,260.5,2
15432,"4-Amino-1,5-dimethyl-2-phenyl-1,2-dihydro-3H-pyrazol-3-one",O=C2C(N)=C(C)N(C)N2c1ccccc1,107,2066,http://msds.chem.ox.ac.uk/,academic website,3,107,109,2
14980,"1,8-Dihydroxyanthracen-9(10H)-one",Oc2cccc1Cc3cccc(O)c3C(=O)c12,181,2117,http://msds.chem.ox.ac.uk/,academic website,3,179,181,2
15186,"2,5-Di-tert-butylbenzene-1,4-diol",CC(C)(C)c1cc(O)c(cc1O)C(C)(C)C,218,2283,http://msds.chem.ox.ac.uk/,academic website,3,216,218,2
13592,2-hydroxybenzyl_alcohol,OCc1ccccc1O,85,4962,http://www.amazon.com/dp/B003XEQTLE,Aldrich Chemical Company; Aldrich Catalog-Handbook of Fine Chemicals; Milwaukee; WI; 1984.,3,85,87,2
14403,"3,5-dichlorobenzoic_acid",Clc1cc(cc(Cl)c1)C(=O)O,186,5606,http://www.amazon.com/dp/B003XEQTLE,Aldrich Chemical Company; Aldrich Catalog-Handbook of Fine Chemicals; Milwaukee; WI; 1984.,3,186,188,2
14081,bromodichloromethane,BrC(Cl)Cl,-55,6119,http://www.amazon.com/dp/B003XEQTLE,Aldrich Chemical Company; Aldrich Catalog-Handbook of Fine Chemicals; Milwaukee; WI; 1984.,3,-57,-55,2
8882,piperidione,CCC1(CC)C(=O)CCNC1=O,102,6222,http://dx.doi.org/10.1021/ci020280x,Bergstrom C. A. S.; Norinder U.; Luthman K.; Artursson P. Molecular Descriptors Influencing Melting Point and Their Role in Classification of Solid Drugs. J. Chem. Inf. Comput. Sci.; (Article); 2003; 43(4); 1177-1328,3,102,104,2
303,1-bromo-2-methylpropane,CC(C)CBr,-118,6307,http://www.alfa.com/en/GP100W.pgm?DSSTK=B23854,Alfa Aesar,3,-119,-117,2
7353,isobutylamine,CC(C)CN,-85,6310,http://www.alfa.com/en/GP100W.pgm?DSSTK=A11017,Alfa Aesar,3,-87,-85,2
14894,"1,1,2-Trichloroethane",ClCC(Cl)Cl,-35,6326,http://msds.chem.ox.ac.uk/,academic website,3,-37,-35,2
2842,2-methoxybiphenyl,COc1ccccc1c2ccccc2,30,6574,http://www.alfa.com/en/GP100W.pgm?DSSTK=L01063,Alfa Aesar,3,29,31,2
14273,n-acetylanthranilic_acid,O=C(C)Nc1ccccc1C(=O)O,184,6705,http://www.amazon.com/dp/B003XEQTLE,Aldrich Chemical Company; Aldrich Catalog-Handbook of Fine Chemicals; Milwaukee; WI; 1984.,3,184,186,2
4883,4-chloro-2-nitrophenol,c1cc(c(cc1Cl)[N+](=O)[O-])O,87,6714,http://www.alfa.com/en/GP100W.pgm?DSSTK=A18150,Alfa Aesar,3,87,89,2
15586,Anthracen-9(10H)-one,O=C1c3ccccc3Cc2ccccc12,156.5,6751,http://msds.chem.ox.ac.uk/,academic website,3,155,157,2
4531,4-acetylbiphenyl,CC(=O)c1ccc(cc1)c2ccccc2,120,6846,http://www.alfa.com/en/GP100W.pgm?DSSTK=A14622,Alfa Aesar,3,120,122,2
15278,2-Methoxynaphthalene,COc1ccc2ccccc2c1,74,6852,http://msds.chem.ox.ac.uk/,academic website,3,72,74,2
8374,quinaldic acid,c1ccc2c(c1)ccc(n2)C(=O)O,158,6857,http://www.alfa.com/en/GP100W.pgm?DSSTK=A10192,Alfa Aesar,3,156,158,2
6432,benzo[b]thiophene,c1ccc2c(c1)ccs2,30,6951,http://www.alfa.com/en/GP100W.pgm?DSSTK=A12328,Alfa Aesar,3,30,32,2
13573,"2,4-diaminotoluene",Nc1cc(N)c(C)cc1,97,6991,http://www.amazon.com/dp/B003XEQTLE,Aldrich Chemical Company; Aldrich Catalog-Handbook of Fine Chemicals; Milwaukee; WI; 1984.,3,97,99,2
15178,"2,4-Di-tert-butylphenol",CC(C)(C)c1cc(ccc1O)C(C)(C)C,54.5,7037,http://msds.chem.ox.ac.uk/,academic website,3,54.5,56.5,2
14046,benzenesulfonamide,O=S(=O)(N)c1ccccc1,151,7092,http://www.amazon.com/dp/B003XEQTLE,Aldrich Chemical Company; Aldrich Catalog-Handbook of Fine Chemicals; Milwaukee; WI; 1984.,3,151,153,2
13793,m-aminobenzoic_acid,OC(=O)c1cc(N)ccc1,173,7141,http://www.amazon.com/dp/B003XEQTLE,Aldrich Chemical Company; Aldrich Catalog-Handbook of Fine Chemicals; Milwaukee; WI; 1984.,3,173,175,2
15285,2-Methyl-5-nitroaniline,Cc1ccc(cc1N)[N+]([O-])=O,107.5,7166,http://msds.chem.ox.ac.uk/,academic website,3,105.5,107.5,2
15229,2-Bromo-1-(4-bromophenyl)ethanone,O=C(CBr)c1ccc(Br)cc1,109,7174,http://msds.chem.ox.ac.uk/,academic website,3,109,111,2
16188,Triphenyl phosphite,O(P(Oc1ccccc1)Oc2ccccc2)c3ccccc3,23,7259,http://msds.chem.ox.ac.uk/,academic website,3,23,25,2
86,1-octadecene,CCCCCCCCCCCCCCCCC=C,16,7925,http://www.alfa.com/en/GP100W.pgm?DSSTK=L11004,Alfa Aesar,3,16,18,2
13949,o-formyl_benzoic_acid,OC(=O)c1ccccc1C=O,97,8099,http://www.amazon.com/dp/B003XEQTLE,Aldrich Chemical Company; Aldrich Catalog-Handbook of Fine Chemicals; Milwaukee; WI; 1984.,3,97,99,2
15495,4-Nitrobenzoyl chloride,O=[N+]([O-])c1ccc(cc1)C(Cl)=O,75,8188,http://msds.chem.ox.ac.uk/,academic website,3,73,75,2
15350,"3,4-Dihydroxybenzaldehyde",Oc1ccc(C=O)cc1O,154,8438,http://msds.chem.ox.ac.uk/,academic website,3,153,155,2
16098,Pyrazine,c1cnccn1,55,8904,http://msds.chem.ox.ac.uk/,academic website,3,53,55,2
14758,"(1R,2S)-2-(Methylamino)-1-phenylpropan-1-ol",O[C@@H]([C@H](C)NC)c1ccccc1,36,8935,http://msds.chem.ox.ac.uk/,academic website,3,34,36,2
8805,dextromoramide,CC(CN1CCOCC1)C(C(=O)N2CCCC2)(c3ccccc3)c4ccccc4,180,9269,http://dx.doi.org/10.1021/ci020280x,Bergstrom C. A. S.; Norinder U.; Luthman K.; Artursson P. Molecular Descriptors Influencing Melting Point and Their Role in Classification of Solid Drugs. J. Chem. Inf. Comput. Sci.; (Article); 2003; 43(4); 1177-1251,3,180,182,2
7310,hydantoin,C1C(=O)NC(=O)N1,222,9612,http://www.alfa.com/en/GP100W.pgm?DSSTK=A12486,Alfa Aesar,3,220,222,2
1396,"2,4,6-trimethylbenzoic acid",Cc1cc(c(c(c1)C)C(=O)O)C,154,9779,http://www.alfa.com/en/GP100W.pgm?DSSTK=A11831,Alfa Aesar,3,152,154,2
15484,"4-Methylbenzene-1,2-dithiol",Cc1cc(S)c(S)cc1,31,9910,http://msds.chem.ox.ac.uk/,academic website,3,29,31,2
15052,1-Isothiocyanatonaphthalene,S=C=Nc2cccc1ccccc12,58,10609,http://msds.chem.ox.ac.uk/,academic website,3,56,58,2
14112,4-acetylbenzoic_acid,OC(=O)c1ccc(cc1)C(C)=O,209,10986,http://www.amazon.com/dp/B003XEQTLE,Aldrich Chemical Company; Aldrich Catalog-Handbook of Fine Chemicals; Milwaukee; WI; 1984.,3,208,210,2
14096,"3,5-dichlorophenol",Oc1cc(Cl)cc(Cl)c1,68,11083,http://www.amazon.com/dp/B003XEQTLE,Aldrich Chemical Company; Aldrich Catalog-Handbook of Fine Chemicals; Milwaukee; WI; 1984.,3,66,68,2
13594,2-methylresorcinol,Oc1cccc(O)c1C,118,11350,http://www.amazon.com/dp/B003XEQTLE,Aldrich Chemical Company; Aldrich Catalog-Handbook of Fine Chemicals; Milwaukee; WI; 1984.,3,118,120,2
1661,"2,5-dimethylbenzoic acid",Cc1ccc(c(c1)C(=O)O)C,134,11399,http://www.alfa.com/en/GP100W.pgm?DSSTK=A15352,Alfa Aesar,3,132,134,2
13997,2-nitrobenzyl_alcohol,O=[N+]([O-])c1ccccc1CO,72,11429,http://www.amazon.com/dp/B003XEQTLE,Aldrich Chemical Company; Aldrich Catalog-Handbook of Fine Chemicals; Milwaukee; WI; 1984.,3,72,74,2
14656,"2,4-dibromoaniline",Brc1cc(Br)c(N)cc1,78,11509,http://www.amazon.com/dp/B003XEQTLE,Aldrich Chemical Company; Aldrich Catalog-Handbook of Fine Chemicals; Milwaukee; WI; 1984.,3,78,80,2
14201,3-nitrobenzyl_chloride,O=[N+]([O-])c1cc(CCl)ccc1,47,11581,http://www.amazon.com/dp/B003XEQTLE,Aldrich Chemical Company; Aldrich Catalog-Handbook of Fine Chemicals; Milwaukee; WI; 1984.,3,45,47,2
7598,methyl 4-bromobenzoate,COC(=O)c1ccc(cc1)Br,79,11584,http://www.alfa.com/en/GP100W.pgm?DSSTK=A15517,Alfa Aesar,3,79,81,2
13967,3-acetamidophenol,Oc1cccc(NC(C)=O)c1,146,11626,http://www.amazon.com/dp/B003XEQTLE,Aldrich Chemical Company; Aldrich Catalog-Handbook of Fine Chemicals; Milwaukee; WI; 1984.,3,146,148,2
14070,"3,5-dichloroaniline",Nc1cc(Cl)cc(Cl)c1,53,11778,http://www.amazon.com/dp/B003XEQTLE,Aldrich Chemical Company; Aldrich Catalog-Handbook of Fine Chemicals; Milwaukee; WI; 1984.,3,51,53,2
275,1-bromoheptane,CCCCCCCBr,-58,11863,http://www.alfa.com/en/GP100W.pgm?DSSTK=A14031,Alfa Aesar,3,-58,-56,2
142,1-iodooctane,CCCCCCCCI,-46,11874,http://www.alfa.com/en/GP100W.pgm?DSSTK=B22214,Alfa Aesar,3,-46,-44,2
15821,Henicosane,CCCCCCCCCCCCCCCCCCCCC,39,11897,http://msds.chem.ox.ac.uk/,academic website,3,39,41,2
14235,"2,4-dichlorobenzaldehyde",O=Cc1ccc(Cl)cc1Cl,73,12830,http://www.amazon.com/dp/B003XEQTLE,Aldrich Chemical Company; Aldrich Catalog-Handbook of Fine Chemicals; Milwaukee; WI; 1984.,3,71,73,2
733,"1,2,3,4-tetrahydrocarbazole",c1ccc2c(c1)c3c([nH]2)CCCC3,119,13075,http://www.alfa.com/en/GP100W.pgm?DSSTK=B23657,Alfa Aesar,3,118,120,2