key,name,smiles,mpC,csid,link,source,count,min,max,range
14872,"1,1',1''-(Bromomethanetriyl)tribenzene",BrC(c1ccccc1)(c2ccccc2)c3ccccc3,153,11200,http://msds.chem.ox.ac.uk/,academic website,3,153,154,1
15174,"2,4-Dinitro-1-naphthol",[O-][N+](=O)c1cc([N+]([O-])=O)c(O)c2ccccc12,131.5,11309,http://msds.chem.ox.ac.uk/,academic website,3,131,132,1
14067,"2,6-dichloroaniline",Clc1cccc(Cl)c1N,40,11353,http://www.amazon.com/dp/B003XEQTLE,Aldrich Chemical Company; Aldrich Catalog-Handbook of Fine Chemicals; Milwaukee; WI; 1984.,3,39,40,1
15264,"2-Hydroxy-3,5-dinitrobenzoic acid",O=[N+]([O-])c1cc(cc(C(=O)O)c1O)[N+]([O-])=O,170.5,11380,http://msds.chem.ox.ac.uk/,academic website,3,170,171,1
13919,o-nitrobenzonitrile,O=[N+]([O-])c1ccccc1C#N,109,11428,http://www.amazon.com/dp/B003XEQTLE,Aldrich Chemical Company; Aldrich Catalog-Handbook of Fine Chemicals; Milwaukee; WI; 1984.,3,108,109,1
16130,tert-Butyl benzenecarboperoxoate,CC(C)(C)OOC(=O)c1ccccc1,8,11472,http://msds.chem.ox.ac.uk/,academic website,3,7,8,1
14649,"2,5-dibromotoluene",Brc1ccc(Br)c(C)c1,5,11511,http://www.amazon.com/dp/B003XEQTLE,Aldrich Chemical Company; Aldrich Catalog-Handbook of Fine Chemicals; Milwaukee; WI; 1984.,3,5,6,1
7549,methyl 3-bromobenzoate,COC(=O)c1cccc(c1)Br,32,11573,http://www.alfa.com/en/GP100W.pgm?DSSTK=A16174,Alfa Aesar,3,32,33,1
3748,3-carboxybenzaldehyde,c1cc(cc(c1)C(=O)O)C=O,174,11580,http://www.alfa.com/en/GP100W.pgm?DSSTK=B21277,Alfa Aesar,3,174,175,1
13920,m-nitrobenzonitrile,O=[N+]([O-])c1cc(C#N)ccc1,117,11582,http://www.amazon.com/dp/B003XEQTLE,Aldrich Chemical Company; Aldrich Catalog-Handbook of Fine Chemicals; Milwaukee; WI; 1984.,3,116,117,1
14305,methyl_4-nitrobenzoate,O=[N+]([O-])c1ccc(cc1)C(=O)OC,96,11586,http://www.amazon.com/dp/B003XEQTLE,Aldrich Chemical Company; Aldrich Catalog-Handbook of Fine Chemicals; Milwaukee; WI; 1984.,3,95,96,1
13647,"1,3-dicyanobenzene",N#Cc1cccc(C#N)c1,161,11773,http://www.amazon.com/dp/B003XEQTLE,Aldrich Chemical Company; Aldrich Catalog-Handbook of Fine Chemicals; Milwaukee; WI; 1984.,3,161,162,1
5530,4-n-propylphenol,CCCc1ccc(cc1)O,21,12060,http://www.alfa.com/en/GP100W.pgm?DSSTK=A15342,Alfa Aesar,3,21,22,1
13684,3-phenylpropionitrile,N#CCCc1ccccc1,-2,12061,http://www.amazon.com/dp/B003XEQTLE,Aldrich Chemical Company; Aldrich Catalog-Handbook of Fine Chemicals; Milwaukee; WI; 1984.,3,-2,-1,1
5365,4-methyl-1-pentene,CC(C)CC=C,-153,12201,http://www.alfa.com/en/GP100W.pgm?DSSTK=33029,Alfa Aesar,3,-154,-153,1
15768,Dodecanedioic acid,O=C(O)CCCCCCCCCCC(=O)O,129,12213,http://msds.chem.ox.ac.uk/,academic website,3,128,129,1
263,1-bromoundecane,CCCCCCCCCCCBr,-9,12221,http://www.alfa.com/en/GP100W.pgm?DSSTK=A14333,Alfa Aesar,3,-10,-9,1
15284,2-Methyl-4-nitro-1H-imidazole,[O-][N+](=O)c1cnc(C)n1,253,12236,http://msds.chem.ox.ac.uk/,academic website,3,252,253,1
14391,cyclohexyl_phenyl_ketone,O=C(c1ccccc1)C2CCCCC2,55,12307,http://www.amazon.com/dp/B003XEQTLE,Aldrich Chemical Company; Aldrich Catalog-Handbook of Fine Chemicals; Milwaukee; WI; 1984.,3,55,56,1
4069,3-methyl-1-pentene,CCC(C)C=C,-154,12429,http://www.alfa.com/en/GP100W.pgm?DSSTK=L11525,Alfa Aesar,3,-154,-153,1
15068,1-Methylpyrrolidin-2-one,O=C1CCCN1C,-23,12814,http://msds.chem.ox.ac.uk/,academic website,3,-24,-23,1
13518,4-aminobenzonitrile,N#Cc1ccc(N)cc1,84,12822,http://www.amazon.com/dp/B003XEQTLE,Aldrich Chemical Company; Aldrich Catalog-Handbook of Fine Chemicals; Milwaukee; WI; 1984.,3,84,85,1
14881,"1,1,1,3,3,3-Hexafluoropropan-2-ol",FC(F)(F)C(O)C(F)(F)F,-3,12941,http://msds.chem.ox.ac.uk/,academic website,3,-4,-3,1
16056,Pentadecanoic acid,O=C(O)CCCCCCCCCCCCCC,52,13249,http://msds.chem.ox.ac.uk/,academic website,3,52,53,1
1844,"2,7-dimethyloctane",CC(C)CCCCC(C)C,-55,13451,http://www.alfa.com/en/GP100W.pgm?DSSTK=B21646,Alfa Aesar,3,-55,-54,1
15966,"N,N-Dimethylpyridin-4-amine",CN(C)c1ccncc1,111,13646,http://msds.chem.ox.ac.uk/,academic website,3,111,112,1
14187,methyl_4-chlorobenzoate,Clc1ccc(cc1)C(=O)OC,44,13669,http://www.amazon.com/dp/B003XEQTLE,Aldrich Chemical Company; Aldrich Catalog-Handbook of Fine Chemicals; Milwaukee; WI; 1984.,3,43,44,1
15903,Methyl 4-formylbenzoate,COC(=O)c1ccc(cc1)C=O,61,14559,http://msds.chem.ox.ac.uk/,academic website,3,60,61,1
14191,m-chlorophenylacetic_acid,Clc1cc(CC(=O)O)ccc1,78,15092,http://www.amazon.com/dp/B003XEQTLE,Aldrich Chemical Company; Aldrich Catalog-Handbook of Fine Chemicals; Milwaukee; WI; 1984.,3,78,79,1
3254,"3,4,5-trimethoxybenzonitrile",COc1cc(cc(c1OC)OC)C#N,93,15105,http://www.alfa.com/en/GP100W.pgm?DSSTK=A14634,Alfa Aesar,3,93,94,1
6538,bis(2-hydroxyethyl) disulfide,C(CSSCCO)O,25,15117,http://www.alfa.com/en/GP100W.pgm?DSSTK=L11800,Alfa Aesar,3,25,26,1
14250,"2,3-dichloroanisole",Clc1c(OC)cccc1Cl,31,15310,http://www.amazon.com/dp/B003XEQTLE,Aldrich Chemical Company; Aldrich Catalog-Handbook of Fine Chemicals; Milwaukee; WI; 1984.,3,31,32,1
14614,2-bromobiphenyl,Brc2ccccc2c1ccccc1,2,15494,http://www.amazon.com/dp/B003XEQTLE,Aldrich Chemical Company; Aldrich Catalog-Handbook of Fine Chemicals; Milwaukee; WI; 1984.,3,1,2,1
2458,2-chlorobenzotrichloride,c1ccc(c(c1)C(Cl)(Cl)Cl)Cl,30,15636,http://www.alfa.com/en/GP100W.pgm?DSSTK=B24428,Alfa Aesar,3,29,30,1
15145,"2,3-Dichloroquinoxaline",Clc1nc2ccccc2nc1Cl,152,15796,http://msds.chem.ox.ac.uk/,academic website,3,152,153,1
14449,"2,4,5-trimethoxybenzaldehyde",COc1cc(OC)c(cc1OC)C=O,114,19331,http://www.amazon.com/dp/B003XEQTLE,Aldrich Chemical Company; Aldrich Catalog-Handbook of Fine Chemicals; Milwaukee; WI; 1984.,3,113,114,1
14494,3-chloro-2-nitrobenzoic_acid,O=[N+]([O-])c1c(cccc1Cl)C(=O)O,237,19663,http://www.amazon.com/dp/B003XEQTLE,Aldrich Chemical Company; Aldrich Catalog-Handbook of Fine Chemicals; Milwaukee; WI; 1984.,3,237,238,1
16148,Thionyl dichloride,ClS(Cl)=O,-104,22797,http://msds.chem.ox.ac.uk/,academic website,3,-105,-104,1
2045,2-aminobutane,CCC(C)N,-104,23255,http://www.alfa.com/en/GP100W.pgm?DSSTK=A13014,Alfa Aesar,3,-105,-104,1
28197,Ipronidazole,CC(C)C1=NC=C(N1C)[N+](=O)[O-],61,25097,http://dx.doi.org/10.1016/j.chemosphere.2013.10.095,Abraham M.H. and Acree Jr. W.E. The solubility of liquid and solid compounds in dry octan-1-ol. Chemosphere (2013),3,60,61,1
14427,p-bromophenylacetonitrile,Brc1ccc(CC#N)cc1,48,25968,http://www.amazon.com/dp/B003XEQTLE,Aldrich Chemical Company; Aldrich Catalog-Handbook of Fine Chemicals; Milwaukee; WI; 1984.,3,47,48,1
8928,amphetaminil,CC(Cc1ccccc1)NC(C#N)c2ccccc2,85,26613,http://dx.doi.org/10.1021/ci020280x,Bergstrom C. A. S.; Norinder U.; Luthman K.; Artursson P. Molecular Descriptors Influencing Melting Point and Their Role in Classification of Solid Drugs. J. Chem. Inf. Comput. Sci.; (Article); 2003; 43(4); 1177-1374,3,85,86,1
8790,caroxazone,NC(=O)CN2Cc1ccccc1OC2=O,203,27057,http://dx.doi.org/10.1021/ci020280x,Bergstrom C. A. S.; Norinder U.; Luthman K.; Artursson P. Molecular Descriptors Influencing Melting Point and Their Role in Classification of Solid Drugs. J. Chem. Inf. Comput. Sci.; (Article); 2003; 43(4); 1177-1236,3,203,204,1
14934,"1,3,5-Trichloro-2-nitrobenzene",O=[N+]([O-])c1c(Cl)cc(Cl)cc1Cl,72,27183,http://msds.chem.ox.ac.uk/,academic website,3,71,72,1
8785,capobenicacid,COc1cc(cc(OC)c1OC)C(=O)NCCCCCC(O)=O,121,28425,http://dx.doi.org/10.1021/ci020280x,Bergstrom C. A. S.; Norinder U.; Luthman K.; Artursson P. Molecular Descriptors Influencing Melting Point and Their Role in Classification of Solid Drugs. J. Chem. Inf. Comput. Sci.; (Article); 2003; 43(4); 1177-1231,3,121,122,1
16088,Propanoic anhydride,CCC(=O)OC(=O)CC,-45,29003,http://msds.chem.ox.ac.uk/,academic website,3,-45,-44,1
8185,octanenitrile,CCCCCCCC#N,-45,29026,http://www.alfa.com/en/GP100W.pgm?DSSTK=B23338,Alfa Aesar,3,-46,-45,1
16160,Tributyl phosphate,CCCCOP(=O)(OCCCC)OCCCC,-80,29090,http://msds.chem.ox.ac.uk/,academic website,3,-80,-79,1
8945,halazepam,FC(F)(F)CN2C(=O)CN=C(c1ccccc1)c3cc(Cl)ccc23,164,29343,http://dx.doi.org/10.1021/ci020280x,Bergstrom C. A. S.; Norinder U.; Luthman K.; Artursson P. Molecular Descriptors Influencing Melting Point and Their Role in Classification of Solid Drugs. J. Chem. Inf. Comput. Sci.; (Article); 2003; 43(4); 1177-1391,3,164,165,1
14251,"3,5-dichloroanisole",Clc1cc(OC)cc(Cl)c1,40,33621,http://www.amazon.com/dp/B003XEQTLE,Aldrich Chemical Company; Aldrich Catalog-Handbook of Fine Chemicals; Milwaukee; WI; 1984.,3,40,41,1
15406,4-(Hydroxymethyl)-2-methoxyphenol,Oc1ccc(cc1OC)CO,114,56139,http://msds.chem.ox.ac.uk/,academic website,3,114,115,1
14252,p-diethylaminobenzaldehyde,CCN(CC)c1ccc(cc1)C=O,40,60462,http://www.amazon.com/dp/B003XEQTLE,Aldrich Chemical Company; Aldrich Catalog-Handbook of Fine Chemicals; Milwaukee; WI; 1984.,3,40,41,1
16076,Phenyl(2-thienyl)methanone,O=C(c1ccccc1)c2cccs2,57,60596,http://msds.chem.ox.ac.uk/,academic website,3,56,57,1
184,"1h-1,2,3-triazole",c1cnn[nH]1,24,60839,http://www.alfa.com/en/GP100W.pgm?DSSTK=A16999,Alfa Aesar,3,23,24,1
15699,Decafluorobiphenyl,Fc1c(c(F)c(F)c(F)c1F)c2c(F)c(F)c(F)c(F)c2F,67,61266,http://msds.chem.ox.ac.uk/,academic website,3,67,68,1
6449,benzofuroxan,c1ccc2c(c1)no[n+]2[O-],69,61388,http://www.alfa.com/en/GP100W.pgm?DSSTK=L10144,Alfa Aesar,3,69,70,1
13239,isobutyramide,CC(C)C(N)=O,129,61707,http://www.amazon.com/dp/B003XEQTLE,Aldrich Chemical Company; Aldrich Catalog-Handbook of Fine Chemicals; Milwaukee; WI; 1984.,3,128,129,1
8851,lotrifen,Clc1ccc(cc1)c4nc3c2ccccc2ccn3n4,238,62098,http://dx.doi.org/10.1021/ci020280x,Bergstrom C. A. S.; Norinder U.; Luthman K.; Artursson P. Molecular Descriptors Influencing Melting Point and Their Role in Classification of Solid Drugs. J. Chem. Inf. Comput. Sci.; (Article); 2003; 43(4); 1177-1297,3,238,239,1
15146,"2,3-Dimethoxy-5-methyl-1,4-benzoquinone",COC1=C(OC)C(=O)C(C)=CC1=O,58.5,62289,http://msds.chem.ox.ac.uk/,academic website,3,58.5,59.5,1
14020,o-chlorobenzamide,O=C(N)c1ccccc1Cl,143,62328,http://www.amazon.com/dp/B003XEQTLE,Aldrich Chemical Company; Aldrich Catalog-Handbook of Fine Chemicals; Milwaukee; WI; 1984.,3,142,143,1
15442,4-Benzoylbenzoic acid,OC(=O)c1ccc(cc1)C(=O)c2ccccc2,198,62362,http://msds.chem.ox.ac.uk/,academic website,3,198,199,1
13742,m-toluamide,Cc1cccc(c1)C(=O)N,96,62466,http://www.amazon.com/dp/B003XEQTLE,Aldrich Chemical Company; Aldrich Catalog-Handbook of Fine Chemicals; Milwaukee; WI; 1984.,3,95,96,1
14034,"1,4-phenylenediacetonitrile",N#CCc1ccc(cc1)CC#N,95,62536,http://www.amazon.com/dp/B003XEQTLE,Aldrich Chemical Company; Aldrich Catalog-Handbook of Fine Chemicals; Milwaukee; WI; 1984.,3,95,96,1
13801,"1,3-benzenedimethanol",OCc1cccc(CO)c1,58,62582,http://www.amazon.com/dp/B003XEQTLE,Aldrich Chemical Company; Aldrich Catalog-Handbook of Fine Chemicals; Milwaukee; WI; 1984.,3,57,58,1
14030,"1,3-phenylenediacetonitrile",N#CCc1cccc(c1)CC#N,33,62583,http://www.amazon.com/dp/B003XEQTLE,Aldrich Chemical Company; Aldrich Catalog-Handbook of Fine Chemicals; Milwaukee; WI; 1984.,3,33,34,1
8511,theophylline-7-acetic acid,Cn1c2c(c(=O)n(c1=O)C)n(cn2)CC(=O)O,270,62754,http://www.alfa.com/en/GP100W.pgm?DSSTK=A11473,Alfa Aesar,3,270,271,1
14478,p-bromobenzamide,O=C(N)c1ccc(Br)cc1,191,62884,http://www.amazon.com/dp/B003XEQTLE,Aldrich Chemical Company; Aldrich Catalog-Handbook of Fine Chemicals; Milwaukee; WI; 1984.,3,191,192,1
14339,"1,2-dimethoxy-4-nitrobenzene",COc1cc(ccc1OC)[N+]([O-])=O,97,62928,http://www.amazon.com/dp/B003XEQTLE,Aldrich Chemical Company; Aldrich Catalog-Handbook of Fine Chemicals; Milwaukee; WI; 1984.,3,97,98,1
14451,"2,4,6-trimethoxybenzaldehyde",COc1cc(cc(OC)c1C=O)OC,120,63211,http://www.amazon.com/dp/B003XEQTLE,Aldrich Chemical Company; Aldrich Catalog-Handbook of Fine Chemicals; Milwaukee; WI; 1984.,3,120,121,1
8773,bamipine,CN1CCC(CC1)N(Cc2ccccc2)c3ccccc3,114,65061,http://dx.doi.org/10.1021/ci020280x,Bergstrom C. A. S.; Norinder U.; Luthman K.; Artursson P. Molecular Descriptors Influencing Melting Point and Their Role in Classification of Solid Drugs. J. Chem. Inf. Comput. Sci.; (Article); 2003; 43(4); 1177-1219,3,114,115,1
8916,vinylbital,CCCC(C)C1(C=C)C(=O)NC(=O)NC1=O,90,65109,http://dx.doi.org/10.1021/ci020280x,Bergstrom C. A. S.; Norinder U.; Luthman K.; Artursson P. Molecular Descriptors Influencing Melting Point and Their Role in Classification of Solid Drugs. J. Chem. Inf. Comput. Sci.; (Article); 2003; 43(4); 1177-1362,3,90,91,1
14841,(Pentafluorophenyl)(phenyl)methanone,Fc1c(c(F)c(F)c(F)c1F)C(=O)c2ccccc2,37.5,66396,http://msds.chem.ox.ac.uk/,academic website,3,37,38,1
13346,1-methylcyclopentanol,CC1(O)CCCC1,37,66464,http://www.amazon.com/dp/B003XEQTLE,Aldrich Chemical Company; Aldrich Catalog-Handbook of Fine Chemicals; Milwaukee; WI; 1984.,3,36,37,1
4823,4-bromophenylacetic acid,c1cc(ccc1CC(=O)O)Br,117,67229,http://www.alfa.com/en/GP100W.pgm?DSSTK=A15325,Alfa Aesar,3,116,117,1
661,"1,2-diethoxybenzene",CCOc1ccccc1OCC,44,67466,http://www.alfa.com/en/GP100W.pgm?DSSTK=A17283,Alfa Aesar,3,43,44,1
13779,p-aminobenzamide,O=C(N)c1ccc(N)cc1,182,68568,http://www.amazon.com/dp/B003XEQTLE,Aldrich Chemical Company; Aldrich Catalog-Handbook of Fine Chemicals; Milwaukee; WI; 1984.,3,182,183,1
14477,o-bromobenzamide,O=C(N)c1ccccc1Br,160,70021,http://www.amazon.com/dp/B003XEQTLE,Aldrich Chemical Company; Aldrich Catalog-Handbook of Fine Chemicals; Milwaukee; WI; 1984.,3,160,161,1
13977,"2,6-dimethoxytoluene",Cc1c(cccc1OC)OC,40,72054,http://www.amazon.com/dp/B003XEQTLE,Aldrich Chemical Company; Aldrich Catalog-Handbook of Fine Chemicals; Milwaukee; WI; 1984.,3,39,40,1
3571,3-acetylbenzonitrile,CC(=O)c1cccc(c1)C#N,99,72466,http://www.alfa.com/en/GP100W.pgm?DSSTK=A10841,Alfa Aesar,3,98,99,1
14056,p-chlorobenzyl_mercaptan,SCc1ccc(Cl)cc1,19,72625,http://www.amazon.com/dp/B003XEQTLE,Aldrich Chemical Company; Aldrich Catalog-Handbook of Fine Chemicals; Milwaukee; WI; 1984.,3,19,20,1
7657,methyl carbazate,COC(=O)NN,72,72718,http://www.alfa.com/en/GP100W.pgm?DSSTK=A14548,Alfa Aesar,3,72,73,1
14218,"5-chloro-1,3-dimethoxybenzene",COc1cc(cc(Cl)c1)OC,34,73537,http://www.amazon.com/dp/B003XEQTLE,Aldrich Chemical Company; Aldrich Catalog-Handbook of Fine Chemicals; Milwaukee; WI; 1984.,3,34,35,1
27599,"3-(chloromethyl)-1,2,4,5-tetramethylbenzene",ClCc1c(c(cc(c1C)C)C)C,69.5,73945,http://www.alfa.com/en/GP100W.pgm?DSSTK=L00501,Alfa Aesar,3,69.5,70.5,1
13965,m-methoxybenzamide,COc1cc(ccc1)C(N)=O,133,88942,http://www.amazon.com/dp/B003XEQTLE,Aldrich Chemical Company; Aldrich Catalog-Handbook of Fine Chemicals; Milwaukee; WI; 1984.,3,133,134,1
14625,o-iodobenzyl_alcohol,OCc1ccccc1I,92,96816,http://www.amazon.com/dp/B003XEQTLE,Aldrich Chemical Company; Aldrich Catalog-Handbook of Fine Chemicals; Milwaukee; WI; 1984.,3,91,92,1
4524,4-acetoxybiphenyl,CC(=O)Oc1ccc(cc1)c2ccccc2,88,306959,http://www.alfa.com/en/GP100W.pgm?DSSTK=A12166,Alfa Aesar,3,88,89,1
7275,griseofulvin,C[C@@H]1CC(=O)C=C([C@]12C(=O)c3c(cc(c(c3O2)Cl)OC)OC)OC,219,389934,http://www.alfa.com/en/GP100W.pgm?DSSTK=B23521,Alfa Aesar,3,219,220,1
15535,6-Propyl-2-sulfanylpyrimidin-4-ol,Sc1nc(CCC)cc(O)n1,220,571424,http://msds.chem.ox.ac.uk/,academic website,3,219,220,1
27721,6-Mercaptopurine,C1=NC2=C(N1)C(=S)N=CN2,314,580869,http://dx.doi.org/10.1016/j.chemosphere.2013.10.095,Abraham M.H. and Acree Jr. W.E. The solubility of liquid and solid compounds in dry octan-1-ol. Chemosphere (2013),3,313,314,1
8907,thialbarbital,C=CCC2(C1CCCC=C1)C(=O)NC(=S)NC2=O,148,2297316,http://dx.doi.org/10.1021/ci020280x,Bergstrom C. A. S.; Norinder U.; Luthman K.; Artursson P. Molecular Descriptors Influencing Melting Point and Their Role in Classification of Solid Drugs. J. Chem. Inf. Comput. Sci.; (Article); 2003; 43(4); 1177-1353,3,148,149,1
8869,noxythiolin,OCNC(=S)NC,88,4418329,http://dx.doi.org/10.1021/ci020280x,Bergstrom C. A. S.; Norinder U.; Luthman K.; Artursson P. Molecular Descriptors Influencing Melting Point and Their Role in Classification of Solid Drugs. J. Chem. Inf. Comput. Sci.; (Article); 2003; 43(4); 1177-1315,3,88,89,1
28460,Piroxicam,O=C\2c1c(cccc1)S(=O)(=O)N(C/2=C(\O)Nc3ncccc3)C,198,4444107,http://dx.doi.org/10.1016/j.chemosphere.2013.10.095,Abraham M.H. and Acree Jr. W.E. The solubility of liquid and solid compounds in dry octan-1-ol. Chemosphere (2013),3,198,199,1
8754,acitretin,COc1cc(C)c(C=CC(C)=CC=CC(C)=CC(O)=O)c(C)c1C,228,4447573,http://dx.doi.org/10.1021/ci020280x,Bergstrom C. A. S.; Norinder U.; Luthman K.; Artursson P. Molecular Descriptors Influencing Melting Point and Their Role in Classification of Solid Drugs. J. Chem. Inf. Comput. Sci.; (Article); 2003; 43(4); 1177-1200,3,228,229,1
14760,"(1R,2S,3S,6R,7R,8S,9S,11R)-3,4,5,6,13,13-Hexachloro-10-oxapentacyclo[6.3.1.1~3,6~.0~2,7~.0~9,11~]tridec-4-ene",ClC1=C(Cl)[C@@]2(Cl)C(Cl)(Cl)[C@]1(Cl)[C@@H]3[C@H]2[C@@H]4C[C@H]3[C@H]5O[C@@H]45,176,10292746,http://msds.chem.ox.ac.uk/,academic website,3,175,176,1
4139,3-nitrobenzamide,c1cc(cc(c1)[N+](=O)[O-])C(=O)N,142,11202219,http://www.alfa.com/en/GP100W.pgm?DSSTK=A15481,Alfa Aesar,3,142,143,1
15228,2-Aminoethanol,NCCO,11,13835336,http://msds.chem.ox.ac.uk/,academic website,3,10,11,1
15132,"2,2'-Iminodiethanol",OCCNCCO,28,13835604,http://msds.chem.ox.ac.uk/,academic website,3,28,29,1
15111,"2,2',2''-Nitrilotriethanol",OCCN(CCO)CCO,19.5,13835630,http://msds.chem.ox.ac.uk/,academic website,3,19.5,20.5,1
664,"1,2-dichloroethane",C(CCl)Cl,-35,13837650,http://www.alfa.com/en/GP100W.pgm?DSSTK=32462,Alfa Aesar,3,-36,-35,1
13177,"1,3-propanediol",OCCCO,-27,13839553,http://www.amazon.com/dp/B003XEQTLE,Aldrich Chemical Company; Aldrich Catalog-Handbook of Fine Chemicals; Milwaukee; WI; 1984.,3,-27,-26,1
15203,"2,6-Dimethylpyridine",Cc1cccc(C)n1,-6,13842613,http://msds.chem.ox.ac.uk/,academic website,3,-7,-6,1
13454,ethyl_cyanoacetate,N#CCC(=O)OCC,-22,13856579,http://www.amazon.com/dp/B003XEQTLE,Aldrich Chemical Company; Aldrich Catalog-Handbook of Fine Chemicals; Milwaukee; WI; 1984.,3,-23,-22,1
8298,piperonal,c1cc2c(cc1C=O)OCO2,36,13859497,http://www.alfa.com/en/GP100W.pgm?DSSTK=A14072,Alfa Aesar,3,36,37,1
13555,"3,4-dimethylaniline",Cc1cc(N)ccc1C,51,13860491,http://www.amazon.com/dp/B003XEQTLE,Aldrich Chemical Company; Aldrich Catalog-Handbook of Fine Chemicals; Milwaukee; WI; 1984.,3,50,51,1
2679,2-furoyl chloride,c1cc(oc1)C(=O)Cl,-1,13861158,http://www.alfa.com/en/GP100W.pgm?DSSTK=L06960,Alfa Aesar,3,-2,-1,1
14228,diethyl_succinate,O=C(CCC(=O)OCC)OCC,-20,13865630,http://www.amazon.com/dp/B003XEQTLE,Aldrich Chemical Company; Aldrich Catalog-Handbook of Fine Chemicals; Milwaukee; WI; 1984.,3,-21,-20,1
13577,m-anisidine,Nc1cccc(OC)c1,0,13869480,http://www.amazon.com/dp/B003XEQTLE,Aldrich Chemical Company; Aldrich Catalog-Handbook of Fine Chemicals; Milwaukee; WI; 1984.,3,-1,0,1
14473,"4-bromo-n,n-dimethylaniline",CN(C)c1ccc(Br)cc1,55,13873600,http://www.amazon.com/dp/B003XEQTLE,Aldrich Chemical Company; Aldrich Catalog-Handbook of Fine Chemicals; Milwaukee; WI; 1984.,3,54,55,1
2509,2-chlorotoluene,Cc1ccccc1Cl,-36,13875281,http://www.alfa.com/en/GP100W.pgm?DSSTK=B23596,Alfa Aesar,3,-36,-35,1
2246,2-bromotoluene,Cc1ccccc1Br,-27,13875320,http://www.alfa.com/en/GP100W.pgm?DSSTK=A12315,Alfa Aesar,3,-28,-27,1
15431,4-Allyl-2-methoxyphenol,Oc1ccc(cc1OC)CC=C,-9,13876103,http://msds.chem.ox.ac.uk/,academic website,3,-10,-9,1
13398,"1,4-dicyanobutane",N#CCCCCC#N,2,13876621,http://www.amazon.com/dp/B003XEQTLE,Aldrich Chemical Company; Aldrich Catalog-Handbook of Fine Chemicals; Milwaukee; WI; 1984.,3,1,2,1
14373,o-bromoanisole,COc1ccccc1Br,2,13881329,http://www.amazon.com/dp/B003XEQTLE,Aldrich Chemical Company; Aldrich Catalog-Handbook of Fine Chemicals; Milwaukee; WI; 1984.,3,2,3,1
14060,"a,a-dichlorotoluene",ClC(Cl)c1ccccc1,-16,13882337,http://www.amazon.com/dp/B003XEQTLE,Aldrich Chemical Company; Aldrich Catalog-Handbook of Fine Chemicals; Milwaukee; WI; 1984.,3,-17,-16,1
14462,benzyl_ether,C(OCc1ccccc1)c2ccccc2,3,21105876,http://www.amazon.com/dp/B003XEQTLE,Aldrich Chemical Company; Aldrich Catalog-Handbook of Fine Chemicals; Milwaukee; WI; 1984.,3,3,4,1
15167,"2,4-Difluoro-1-nitrobenzene",Fc1cc(F)ccc1[N+](=O)[O-],9,21106036,http://msds.chem.ox.ac.uk/,academic website,3,9,10,1