key,name,smiles,mpC,csid,link,source,count,min,max,range
13865,5-chloro-2-hydroxyaniline,Nc1cc(Cl)ccc1O,143,6995,http://www.amazon.com/dp/B003XEQTLE,Aldrich Chemical Company; Aldrich Catalog-Handbook of Fine Chemicals; Milwaukee; WI; 1984.,3,140,143,3
15010,1-Chloro-4-(trifluoromethyl)benzene,FC(F)(F)c1ccc(Cl)cc1,-36,7116,http://msds.chem.ox.ac.uk/,academic website,3,-36,-33,3
14491,2-chloro-4-nitrobenzoic_acid,OC(=O)c1ccc(cc1Cl)[N+]([O-])=O,139,7168,http://www.amazon.com/dp/B003XEQTLE,Aldrich Chemical Company; Aldrich Catalog-Handbook of Fine Chemicals; Milwaukee; WI; 1984.,3,139,142,3
15871,Isonicotinonitrile,N#Cc1ccncc1,76,7225,http://msds.chem.ox.ac.uk/,academic website,3,76,79,3
14540,p-bromoacetanilide,Brc1ccc(NC(C)=O)cc1,166,7399,http://www.amazon.com/dp/B003XEQTLE,Aldrich Chemical Company; Aldrich Catalog-Handbook of Fine Chemicals; Milwaukee; WI; 1984.,3,166,169,3
14551,"1,2-diphenoxyethane",C(COc1ccccc1)Oc2ccccc2,95,7427,http://www.amazon.com/dp/B003XEQTLE,Aldrich Chemical Company; Aldrich Catalog-Handbook of Fine Chemicals; Milwaukee; WI; 1984.,3,95,98,3
14065,4-chlorobenzyl_chloride,ClCc1ccc(Cl)cc1,30,7437,http://www.amazon.com/dp/B003XEQTLE,Aldrich Chemical Company; Aldrich Catalog-Handbook of Fine Chemicals; Milwaukee; WI; 1984.,3,28,31,3
14397,p-bromochlorobenzene,Clc1ccc(Br)cc1,67,7518,http://www.amazon.com/dp/B003XEQTLE,Aldrich Chemical Company; Aldrich Catalog-Handbook of Fine Chemicals; Milwaukee; WI; 1984.,3,65,68,3
14690,1-octadecanol,CCCCCCCCCCCCCCCCCCO,61,7928,http://www.amazon.com/dp/B003XEQTLE,Aldrich Chemical Company; Aldrich Catalog-Handbook of Fine Chemicals; Milwaukee; WI; 1984.,3,58,61,3
14943,"1,3-Dichloro-5,5-dimethylimidazolidine-2,4-dione",O=C1N(Cl)C(=O)N(Cl)C1(C)C,135,8057,http://msds.chem.ox.ac.uk/,academic website,3,132,135,3
6720,cyclooctane,C1CCCCCCC1,12,8909,http://www.alfa.com/en/GP100W.pgm?DSSTK=L15000,Alfa Aesar,3,12,15,3
14224,5-chlorosalicylic_acid,Oc1ccc(Cl)cc1C(=O)O,171,9075,http://www.amazon.com/dp/B003XEQTLE,Aldrich Chemical Company; Aldrich Catalog-Handbook of Fine Chemicals; Milwaukee; WI; 1984.,3,171,174,3
15020,1-Cyanoguanidine,N=C(N)NC#N,208,9611,http://msds.chem.ox.ac.uk/,academic website,3,208,211,3
8293,"pinane, endo exo",CC1CCC2CC1C2(C)C,-53,9724,http://www.alfa.com/en/GP100W.pgm?DSSTK=B20763,Alfa Aesar,3,-53,-50,3
15544,"9,10-Dihydroanthracene",c1ccc2Cc3ccccc3Cc2c1,109,11446,http://msds.chem.ox.ac.uk/,academic website,3,108,111,3
5343,4-methoxybiphenyl,COc1ccc(cc1)c2ccccc2,88,11449,http://www.alfa.com/en/GP100W.pgm?DSSTK=L01260,Alfa Aesar,3,88,91,3
2748,2-hydroxyphenylacetic acid,c1ccc(c(c1)CC(=O)O)O,146,11476,http://www.alfa.com/en/GP100W.pgm?DSSTK=A13924,Alfa Aesar,3,146,149,3
14571,o-iodoaniline,Ic1ccccc1N,58,11500,http://www.amazon.com/dp/B003XEQTLE,Aldrich Chemical Company; Aldrich Catalog-Handbook of Fine Chemicals; Milwaukee; WI; 1984.,3,55,58,3
14662,"2,4-dibromophenol",Brc1cc(Br)c(O)cc1,40,11510,http://www.amazon.com/dp/B003XEQTLE,Aldrich Chemical Company; Aldrich Catalog-Handbook of Fine Chemicals; Milwaukee; WI; 1984.,3,37,40,3
14652,p-iodobenzoic_acid,OC(=O)c1ccc(I)cc1,273,11588,http://www.amazon.com/dp/B003XEQTLE,Aldrich Chemical Company; Aldrich Catalog-Handbook of Fine Chemicals; Milwaukee; WI; 1984.,3,270,273,3
14306,p-bromobenzonitrile,N#Cc1ccc(Br)cc1,111,11662,http://www.amazon.com/dp/B003XEQTLE,Aldrich Chemical Company; Aldrich Catalog-Handbook of Fine Chemicals; Milwaukee; WI; 1984.,3,111,114,3
13788,p-chlorobenzonitrile,N#Cc1ccc(Cl)cc1,92,11663,http://www.amazon.com/dp/B003XEQTLE,Aldrich Chemical Company; Aldrich Catalog-Handbook of Fine Chemicals; Milwaukee; WI; 1984.,3,92,95,3
15762,Docosane,CCCCCCCCCCCCCCCCCCCCCC,42,11899,http://msds.chem.ox.ac.uk/,academic website,3,42,45,3
14220,4-chloro-3-nitroaniline,O=[N+]([O-])c1cc(N)ccc1Cl,100,11967,http://www.amazon.com/dp/B003XEQTLE,Aldrich Chemical Company; Aldrich Catalog-Handbook of Fine Chemicals; Milwaukee; WI; 1984.,3,100,103,3
16173,Tridecanoic acid,O=C(O)CCCCCCCCCCCC,41.5,12013,http://msds.chem.ox.ac.uk/,academic website,3,41.5,44.5,3
6005,5-nitro-2-furoic acid,c1cc(oc1C(=O)O)[N+](=O)[O-],187,12057,http://www.alfa.com/en/GP100W.pgm?DSSTK=A10597,Alfa Aesar,3,184,187,3
14776,(2-Amino-5-chlorophenyl)(phenyl)methanone,Nc2ccc(Cl)cc2C(=O)c1ccccc1,96,12339,http://msds.chem.ox.ac.uk/,academic website,3,96,99,3
15532,"6-Methoxy-1,3-benzothiazol-2-amine",COc1ccc2nc(N)sc2c1,166,14869,http://msds.chem.ox.ac.uk/,academic website,3,163,166,3
4149,3-nitrobiphenyl,c1ccc(cc1)c2cccc(c2)[N+](=O)[O-],59,15596,http://www.alfa.com/en/GP100W.pgm?DSSTK=L01246,Alfa Aesar,3,59,62,3
14493,2-chloro-3-nitrobenzoic_acid,O=[N+]([O-])c1cccc(C(=O)O)c1Cl,181,18716,http://www.amazon.com/dp/B003XEQTLE,Aldrich Chemical Company; Aldrich Catalog-Handbook of Fine Chemicals; Milwaukee; WI; 1984.,3,181,184,3
14222,2-chloro-5-nitroaniline,Nc1cc(ccc1Cl)[N+]([O-])=O,118,21272,http://www.amazon.com/dp/B003XEQTLE,Aldrich Chemical Company; Aldrich Catalog-Handbook of Fine Chemicals; Milwaukee; WI; 1984.,3,118,121,3
13855,2-chlorobenzyl alcohol,OCc1ccccc1Cl,70,26799,http://www.amazon.com/dp/B003XEQTLE,Aldrich Chemical Company; Aldrich Catalog-Handbook of Fine Chemicals; Milwaukee; WI; 1984.,3,70,73,3
15343,"3,3-Bis(4-hydroxy-5-isopropyl-2-methylphenyl)-2-benzofuran-1(3H)-one",CC(C)c1cc(c(C)cc1O)C3(OC(=O)c2ccccc23)c4cc(C(C)C)c(O)cc4C,250,29054,http://msds.chem.ox.ac.uk/,academic website,3,250,253,3
6530,biphenyl-4-carboxylic acid,c1ccc(cc1)c2ccc(cc2)C(=O)O,225,60090,http://www.alfa.com/en/GP100W.pgm?DSSTK=A12438,Alfa Aesar,3,225,228,3
14136,"2,5-dimethoxybenzaldehyde",COc1ccc(cc1C=O)OC,52,60092,http://www.amazon.com/dp/B003XEQTLE,Aldrich Chemical Company; Aldrich Catalog-Handbook of Fine Chemicals; Milwaukee; WI; 1984.,3,49,52,3
15198,"2,6-Dimethoxy-1,4-benzoquinone",COC1=CC(=O)C=C(OC)C1=O,253,61560,http://msds.chem.ox.ac.uk/,academic website,3,253,256,3
14138,"2,4-dimethoxybenzaldehyde",COc1cc(ccc1C=O)OC,72,62390,http://www.amazon.com/dp/B003XEQTLE,Aldrich Chemical Company; Aldrich Catalog-Handbook of Fine Chemicals; Milwaukee; WI; 1984.,3,69,72,3
14622,p-iodoanisole,Ic1ccc(OC)cc1,50,62877,http://www.amazon.com/dp/B003XEQTLE,Aldrich Chemical Company; Aldrich Catalog-Handbook of Fine Chemicals; Milwaukee; WI; 1984.,3,50,53,3
4361,4-(trifluoromethyl)benzophenone,c1ccc(cc1)C(=O)c2ccc(cc2)C(F)(F)F,118,62966,http://www.alfa.com/en/GP100W.pgm?DSSTK=B20775,Alfa Aesar,3,115,118,3
6523,biphenyl-2-carboxylic acid,c1ccc(cc1)c2ccccc2C(=O)O,112,63538,http://www.alfa.com/en/GP100W.pgm?DSSTK=A12049,Alfa Aesar,3,112,115,3
4404,"4,4'-dibromobenzophenone",c1cc(ccc1C(=O)c2ccc(cc2)Br)Br,174,65700,http://www.alfa.com/en/GP100W.pgm?DSSTK=L08200,Alfa Aesar,3,174,177,3
14392,"3,4-dichloroacetophenone",Clc1ccc(cc1Cl)C(C)=O,73,68350,http://www.amazon.com/dp/B003XEQTLE,Aldrich Chemical Company; Aldrich Catalog-Handbook of Fine Chemicals; Milwaukee; WI; 1984.,3,73,76,3
13981,methyl_3-hydroxybenzoate,Oc1cc(ccc1)C(=O)OC,74,79453,http://www.amazon.com/dp/B003XEQTLE,Aldrich Chemical Company; Aldrich Catalog-Handbook of Fine Chemicals; Milwaukee; WI; 1984.,3,71,74,3
17333,quinine,COc1cc2c(cc1)nccc2[C@@H](O)[C@@H]4C[C@@H]3CC[N@]4C[C@@H]3C=C,177,84989,http://dx.doi.org/10.1021/ci700307p,Hughes LD; Palmer DS; Nigsch F and Mitchell JBO. 2008 Why are some properties more difficult to predict than others? A study of QSPR models of solubility; melting point and LogP. J. Chem. Inf. Model. 2008. 48 (1). pp 220?480,3,174,177,3
14594,m-bromocinnamic_acid,Brc1cc(/C=C/C(=O)O)ccc1,177,678734,http://www.amazon.com/dp/B003XEQTLE,Aldrich Chemical Company; Aldrich Catalog-Handbook of Fine Chemicals; Milwaukee; WI; 1984.,3,177,180,3
27316,"(1E,4E)-1,5-Di(2-naphthyl)-1,4-pentadien-3-one",O=C(\C=C\c2ccc1c(cccc1)c2)\C=C\c2ccc1c(cccc1)c2,242,4523376,http://pubs.acs.org/doi/abs/10.1021/ja00233a004,Journal of the American Chemical Society,3,242,245,3
6575,bromoacetic acid,C(C(=O)O)Br,47,10301338,http://www.alfa.com/en/GP100W.pgm?DSSTK=A14403,Alfa Aesar,3,47,50,3
15122,"2,2'-[Ethane-1,2-diylbis(oxy)]diethanol",OCCOCCOCCO,-4,13835895,http://msds.chem.ox.ac.uk/,academic website,3,-7,-4,3
13545,2-ethylaniline,CCc1ccccc1N,-44,13860641,http://www.amazon.com/dp/B003XEQTLE,Aldrich Chemical Company; Aldrich Catalog-Handbook of Fine Chemicals; Milwaukee; WI; 1984.,3,-47,-44,3
14633,p-chloroiodobenzene,Ic1ccc(Cl)cc1,54,13868660,http://www.amazon.com/dp/B003XEQTLE,Aldrich Chemical Company; Aldrich Catalog-Handbook of Fine Chemicals; Milwaukee; WI; 1984.,3,54,57,3
14216,m-bromophenol,Oc1cc(Br)ccc1,31,13875441,http://www.amazon.com/dp/B003XEQTLE,Aldrich Chemical Company; Aldrich Catalog-Handbook of Fine Chemicals; Milwaukee; WI; 1984.,3,30,33,3
15463,"4-Hexylbenzene-1,3-diol",Oc1cc(O)ccc1CCCCCC,65,21106121,http://msds.chem.ox.ac.uk/,academic website,3,65,68,3
15162,"2,4,6-Trimethylpyridine",Cc1cc(C)cc(C)n1,-46,21106174,http://msds.chem.ox.ac.uk/,academic website,3,-46,-43,3
14198,o-bromoaniline,Nc1ccccc1Br,30,21111816,http://www.amazon.com/dp/B003XEQTLE,Aldrich Chemical Company; Aldrich Catalog-Handbook of Fine Chemicals; Milwaukee; WI; 1984.,3,29,32,3
14461,2-bromomesitylene,Cc1cc(C)c(Br)c(C)c1,2,21112244,http://www.amazon.com/dp/B003XEQTLE,Aldrich Chemical Company; Aldrich Catalog-Handbook of Fine Chemicals; Milwaukee; WI; 1984.,3,-1,2,3
14528,1-bromo-4-tert-butylbenzene,CC(C)(C)c1ccc(Br)cc1,16,21171393,http://www.amazon.com/dp/B003XEQTLE,Aldrich Chemical Company; Aldrich Catalog-Handbook of Fine Chemicals; Milwaukee; WI; 1984.,3,16,19,3
27501,2-Aminobenzoic acid,C1=CC=C(C(=C1)C(=O)O)N,144,222,http://dx.doi.org/10.1016/j.chemosphere.2013.10.095,Abraham M.H. and Acree Jr. W.E. The solubility of liquid and solid compounds in dry octan-1-ol. Chemosphere (2013),4,144,147,3
15654,Butyraldehyde,CCCC=O,-96,256,http://msds.chem.ox.ac.uk/,academic website,4,-99,-96,3
13964,p-nitrobenzaldehyde,O=[N+]([O-])c1ccc(C=O)cc1,108,526,http://www.amazon.com/dp/B003XEQTLE,Aldrich Chemical Company; Aldrich Catalog-Handbook of Fine Chemicals; Milwaukee; WI; 1984.,4,105,108,3
28048,Dimetridazole,CC1=NC=C(N1C)[N+](=O)[O-],140,2980,http://dx.doi.org/10.1016/j.chemosphere.2013.10.095,Abraham M.H. and Acree Jr. W.E. The solubility of liquid and solid compounds in dry octan-1-ol. Chemosphere (2013),4,137,140,3
8875,perphenazine,OCCN4CCN(CCCN2c1ccccc1Sc3ccc(Cl)cc23)CC4,94,4586,http://dx.doi.org/10.1021/ci020280x,Bergstrom C. A. S.; Norinder U.; Luthman K.; Artursson P. Molecular Descriptors Influencing Melting Point and Their Role in Classification of Solid Drugs. J. Chem. Inf. Comput. Sci.; (Article); 2003; 43(4); 1177-1321,4,94,97,3
28464,prednisone,O=C(CO)[C@@]3(O)CC[C@H]2[C@@H]4CC\C1=C\C(=O)\C=C/[C@]1(C)[C@H]4C(=O)C[C@@]23C,234,5656,http://www.amazon.com/gp/product/0849304865/,CRC Handbook of Chemistry and Physics,4,234,237,3
15072,1-Naphthyl methylcarbamate,CNC(=O)Oc2cccc1ccccc12,142,5899,http://msds.chem.ox.ac.uk/,academic website,4,142,145,3
15454,4-Chlorobenzoic acid,OC(=O)c1ccc(Cl)cc1,243,6079,http://msds.chem.ox.ac.uk/,academic website,4,240,243,3
15866,Iodomethane,CI,-64,6088,http://msds.chem.ox.ac.uk/,academic website,4,-67,-64,3
16799,Butethal,O=C1NC(=O)NC(=O)C1(CCCC)CC,128.5,6229,http://www.drugbank.ca/drugs/DB01353,DrugBank,4,125.5,128.5,3
15753,Diphenylmethanol,OC(c1ccccc1)c2ccccc2,66,6770,http://msds.chem.ox.ac.uk/,academic website,4,66,69,3
14188,2'-acetonaphthone,CC(=O)c1ccc2ccccc2c1,53,6855,http://www.amazon.com/dp/B003XEQTLE,Aldrich Chemical Company; Aldrich Catalog-Handbook of Fine Chemicals; Milwaukee; WI; 1984.,4,53,56,3
15907,Methyl benzoate,COC(=O)c1ccccc1,-12,6883,http://msds.chem.ox.ac.uk/,academic website,4,-15,-12,3
15485,4-Methylbenzenesulfonyl chloride,Cc1ccc(cc1)S(=O)(Cl)=O,68,7119,http://msds.chem.ox.ac.uk/,academic website,4,68,71,3
15832,Heptanoic acid,CCCCCCC(=O)O,-9,7803,http://msds.chem.ox.ac.uk/,academic website,4,-9,-6,3
16198,Undecan-2-one,CC(=O)CCCCCCCCC,12,7871,http://msds.chem.ox.ac.uk/,academic website,4,12,15,3
15708,Dibutyl ether,CCCCOCCCC,-97.9,8569,http://msds.chem.ox.ac.uk/,academic website,4,-98,-95,3
15930,N-(2-Hydroxyphenyl)acetamide,Oc1ccccc1NC(C)=O,205,11477,http://msds.chem.ox.ac.uk/,academic website,4,205,208,3
15733,Dimethyl carbonate,O=C(OC)OC,1,11526,http://msds.chem.ox.ac.uk/,academic website,4,1,4,3
14922,"1,2-Diiodoethane",ICCI,80,11723,http://msds.chem.ox.ac.uk/,academic website,4,80,83,3
15045,1-Iodo-4-nitrobenzene,Ic1ccc(cc1)[N+](=O)[O-],176,11982,http://msds.chem.ox.ac.uk/,academic website,4,173,176,3
5257,4'-iodoacetophenone,CC(=O)c1ccc(cc1)I,83,65701,http://www.alfa.com/en/GP100W.pgm?DSSTK=A16794,Alfa Aesar,4,83,86,3
13514,"1,6-hexanediol",OCCCCCCO,45,13839416,http://www.amazon.com/dp/B003XEQTLE,Aldrich Chemical Company; Aldrich Catalog-Handbook of Fine Chemicals; Milwaukee; WI; 1984.,4,42,45,3
15005,"1-Chloro-2,4-dinitrobenzene",O=[N+]([O-])c1cc(ccc1Cl)[N+]([O-])=O,53,13868426,http://msds.chem.ox.ac.uk/,academic website,4,50,53,3
1610,"2,5-dichloro-p-xylene",Cc1cc(c(cc1Cl)C)Cl,69,13868642,http://www.alfa.com/en/GP100W.pgm?DSSTK=B21344,Alfa Aesar,4,68,71,3
15457,4-Chlorophenol,Oc1ccc(Cl)cc1,44,13875219,http://msds.chem.ox.ac.uk/,academic website,4,41,44,3
14953,"1,3-Diphenylacetone",O=C(Cc1ccccc1)Cc2ccccc2,32,21105887,http://msds.chem.ox.ac.uk/,academic website,4,32,35,3
15009,1-Chloro-3-nitrobenzene,O=[N+]([O-])c1cc(Cl)ccc1,45,21106013,http://msds.chem.ox.ac.uk/,academic website,4,43,46,3
14857,1-(3-Nitrophenyl)ethanone,O=[N+]([O-])c1cc(ccc1)C(C)=O,81,21106145,http://msds.chem.ox.ac.uk/,academic website,4,78,81,3
15655,Butyric acid,CCCC(=O)O,-5,259,http://msds.chem.ox.ac.uk/,academic website,5,-8,-5,3
13817,p-nitrophenol,O=[N+]([O-])c1ccc(O)cc1,115,955,http://www.amazon.com/dp/B003XEQTLE,Aldrich Chemical Company; Aldrich Catalog-Handbook of Fine Chemicals; Milwaukee; WI; 1984.,5,112,115,3
8895,pyrazinamide,NC(=O)c1cnccn1,189,1017,http://dx.doi.org/10.1021/ci020280x,Bergstrom C. A. S.; Norinder U.; Luthman K.; Artursson P. Molecular Descriptors Influencing Melting Point and Their Role in Classification of Solid Drugs. J. Chem. Inf. Comput. Sci.; (Article); 2003; 43(4); 1177-1341,5,189,192,3
16094,Propyl acetate,CC(=O)OCCC,-95,7706,http://msds.chem.ox.ac.uk/,academic website,5,-95,-92,3
27510,2-Chlorobenzoic acid,C1=CC=C(C(=C1)C(=O)O)Cl,140,8071,http://dx.doi.org/10.1016/j.chemosphere.2013.10.095,Abraham M.H. and Acree Jr. W.E. The solubility of liquid and solid compounds in dry octan-1-ol. Chemosphere (2013),5,139,142,3
16019,Nonan-1-ol,CCCCCCCCCO,-7,8574,http://msds.chem.ox.ac.uk/,academic website,5,-7,-4,3
28597,Thioxanthen-9-one,C1=CC=C2C(=C1)C(=O)C3=CC=CC=C3S2,211,9873,http://dx.doi.org/10.1016/j.chemosphere.2013.10.095,Abraham M.H. and Acree Jr. W.E. The solubility of liquid and solid compounds in dry octan-1-ol. Chemosphere (2013),5,209,212,3
14901,"1,1'-Ethyne-1,2-diyldibenzene",C(#Cc1ccccc1)c2ccccc2,60,9961,http://msds.chem.ox.ac.uk/,academic website,5,60,63,3
27981,cyclopropanecarboxylic acid,C1(CC1)C(=O)O,18,14890,http://www.chemblink.com/products/1759-53-1.htm,ChemBlink,5,15.5,18.5,3
3516,"3,5-dimethylphenol",Cc1cc(cc(c1)O)C,63,13839110,http://www.alfa.com/en/GP100W.pgm?DSSTK=A12236,Alfa Aesar,5,62.5,65.5,3
15614,Benzyl benzoate,O=C(OCc1ccccc1)c2ccccc2,18,13856959,http://msds.chem.ox.ac.uk/,academic website,5,18,21,3
15063,1-Methyl-4-nitrobenzene,Cc1ccc(cc1)[N+](=O)[O-],51,13863774,http://msds.chem.ox.ac.uk/,academic website,5,51,54,3
16121,Succinic acid,O=C(O)CCC(=O)O,185,1078,http://msds.chem.ox.ac.uk/,academic website,6,185,188,3
28303,Naproxen,CC(C1=CC2=C(C=C1)C=C(C=C2)OC)C(=O)O,155,1262,http://dx.doi.org/10.1016/j.chemosphere.2013.10.095,Abraham M.H. and Acree Jr. W.E. The solubility of liquid and solid compounds in dry octan-1-ol. Chemosphere (2013),6,152,155,3
27850,Benzoin,C1=CC=C(C=C1)C(C(=O)C2=CC=CC=C2)O,137,8093,http://dx.doi.org/10.1016/j.chemosphere.2013.10.095,Abraham M.H. and Acree Jr. W.E. The solubility of liquid and solid compounds in dry octan-1-ol. Chemosphere (2013),6,134,137,3
27566,"2,4-Dichlorophenol",C1=CC(=C(C=C1Cl)Cl)O,42.5,8140,http://dx.doi.org/10.1016/j.chemosphere.2013.10.095,Abraham M.H. and Acree Jr. W.E. The solubility of liquid and solid compounds in dry octan-1-ol. Chemosphere (2013),6,42,45,3
15144,"2,3-Dichlorophenol",Oc1cccc(Cl)c1Cl,56,10857,http://msds.chem.ox.ac.uk/,academic website,6,56,59,3
27840,Benzo[a]pyrene,C1=CC=C2C3=C4C(=CC2=C1)C=CC5=C4C(=CC=C5)C=C3,176,2246,http://dx.doi.org/10.1016/j.chemosphere.2013.10.095,Abraham M.H. and Acree Jr. W.E. The solubility of liquid and solid compounds in dry octan-1-ol. Chemosphere (2013),7,176,179,3
13770,phenylacetic_acid,OC(=O)Cc1ccccc1,79,10181341,http://www.amazon.com/dp/B003XEQTLE,Aldrich Chemical Company; Aldrich Catalog-Handbook of Fine Chemicals; Milwaukee; WI; 1984.,7,76,79,3
27790,Anthracene,C1=CC=C2C=C3C=CC=CC3=CC2=C1,216.3,8111,http://dx.doi.org/10.1016/j.chemosphere.2013.10.095,Abraham M.H. and Acree Jr. W.E. The solubility of liquid and solid compounds in dry octan-1-ol. Chemosphere (2013),8,215,218,3
28605,trans-Stilbene,C1=CC=C(C=C1)/C=C/C2=CC=CC=C2,125,553649,http://dx.doi.org/10.1016/j.chemosphere.2013.10.095,Abraham M.H. and Acree Jr. W.E. The solubility of liquid and solid compounds in dry octan-1-ol. Chemosphere (2013),8,123,126,3
27895,Caffeine,CN1C=NC2=C1C(=O)N(C(=O)N2C)C,236,2424,http://dx.doi.org/10.1016/j.chemosphere.2013.10.095,Abraham M.H. and Acree Jr. W.E. The solubility of liquid and solid compounds in dry octan-1-ol. Chemosphere (2013),9,235,238,3
15974,"N~4~-(7-Chloroquinolin-4-yl)-N~1~,N~1~-diethylpentane-1,4-diamine",CCN(CC)CCCC(C)Nc1ccnc2cc(Cl)ccc12,87,2618,http://msds.chem.ox.ac.uk/,academic website,10,86.5,89.5,3
16050,Pent-1-ene,CCCC=C,-165,7713,http://msds.chem.ox.ac.uk/,academic website,4,-165.2,-162.12,3.08
15864,Iodoethane,CCI,-108,6100,http://msds.chem.ox.ac.uk/,academic website,4,-111.1,-108,3.1
1041,2-(n-hexyloxy)ethanol,CCCCCCOCCO,-42,7878,http://www.alfa.com/en/GP100W.pgm?DSSTK=B22385,Alfa Aesar,2,-45.1,-42,3.1
16039,Octadecan-1-amine,CCCCCCCCCCCCCCCCCCN,56,15016,http://msds.chem.ox.ac.uk/,academic website,3,52.9,56,3.1
13208,3-methyl-trans-2-pentene,CC=C(/C)CC,-138,557853,http://www.amazon.com/dp/B002IYRJWI,American Petroleum Institute. Research Project 44; Selected Values of Properties of Hydrocarbons and Related Compounds. Texas A & M University; College Station; TX; 1973.,2,-138,-134.8,3.2
16037,o-Cresol,Cc1ccccc1O,33,13835772,http://msds.chem.ox.ac.uk/,academic website,4,29.8,33,3.2
388,12-tricosanone,CCCCCCCCCCCC(=O)CCCCCCCCCCC,67,10426,http://www.alfa.com/en/GP100W.pgm?DSSTK=41444,Alfa Aesar,2,67,70.2,3.2
8310,propionamide,CCC(=O)N,78,6330,http://www.alfa.com/en/GP100W.pgm?DSSTK=A10521,Alfa Aesar,2,78,81.3,3.3
15308,2-Methylpyridine,Cc1ccccn1,-70,13839199,http://msds.chem.ox.ac.uk/,academic website,3,-70,-66.7,3.3
15653,Butylcyclohexane,CCCCC1CCCCC1,-75,14753,http://msds.chem.ox.ac.uk/,academic website,4,-78,-74.7,3.3
15202,"2,6-Dimethylphenol",Cc1cccc(C)c1O,49,13839174,http://msds.chem.ox.ac.uk/,academic website,4,45.7,49,3.3
27612,3-Methylbenzoic acid,CC1=CC(=CC=C1)C(=O)O,110,7140,http://dx.doi.org/10.1016/j.chemosphere.2013.10.095,Abraham M.H. and Acree Jr. W.E. The solubility of liquid and solid compounds in dry octan-1-ol. Chemosphere (2013),5,108.7,112,3.3
147,1-iodododecane,CCCCCCCCCCCCI,-3,19108,http://www.alfa.com/en/GP100W.pgm?DSSTK=A11909,Alfa Aesar,3,-3,0.3,3.3
16452,Diazoxide,Clc1ccc2NC(C)=NS(=O)(=O)c2c1,330.5,2911,http://www.drugbank.ca/drugs/DB01119,DrugBank,3,327.2,330.5,3.3
8826,furonazide,CC(=NNC(=O)c1ccncc1)c2ccco2,199,4655810,http://dx.doi.org/10.1021/ci020280x,Bergstrom C. A. S.; Norinder U.; Luthman K.; Artursson P. Molecular Descriptors Influencing Melting Point and Their Role in Classification of Solid Drugs. J. Chem. Inf. Comput. Sci.; (Article); 2003; 43(4); 1177-1272,3,199,202.3,3.3
16204,Urea,NC(N)=O,136,1143,http://msds.chem.ox.ac.uk/,academic website,4,132.7,136,3.3
15237,2-Chlorobenzaldehyde,O=Cc1ccccc1Cl,9,21106014,http://msds.chem.ox.ac.uk/,academic website,4,9,12.4,3.4