key,name,smiles,mpC,csid,link,source,count,min,max,range
6828,diethyl acetamidomalonate,CCOC(=O)C(C(=O)OCC)NC(=O)C,98,13422,http://www.alfa.com/en/GP100W.pgm?DSSTK=A14048,Alfa Aesar,2,96.3,98,1.7
5533,4-pentynoic acid,C#CCCC(=O)O,56,21069,http://www.alfa.com/en/GP100W.pgm?DSSTK=L09282,Alfa Aesar,2,56,57.7,1.7
749,"1,12-dodecanediol",C(CCCCCCO)CCCCCO,83,72056,http://www.alfa.com/en/GP100W.pgm?DSSTK=B22885,Alfa Aesar,2,81.3,83,1.7
15319,2-Nitropropane,CC(C)[N+]([O-])=O,-93,387,http://msds.chem.ox.ac.uk/,academic website,3,-93,-91.3,1.7
14961,"1,4-Benzoquinone",O=C1C=CC(=O)C=C1,114,4489,http://msds.chem.ox.ac.uk/,academic website,4,114,115.7,1.7
16132,tert-Butylbenzene,CC(C)(C)c1ccccc1,-59.5,7088,http://msds.chem.ox.ac.uk/,academic website,4,-59.5,-57.8,1.7
16396,Alprazolam,Clc1cc2C(=NCc3nnc(C)n3c2cc1)c4ccccc4,228.25,2034,http://www.drugbank.ca/drugs/DB00404,DrugBank,2,228.25,230,1.75
18101,"cyclopentane, 1,2,4-trimethyl-, (1.alpha.,2.alph",CC1CC(C)C(C)C1,-132.6,16800,http://www.srcinc.com/what-we-do/product.aspx?id=133,PHYSPROP,3,-132.6,-130.8,1.8
6258,8-hydroxy-2-methylquinoline,Cc1ccc2cccc(c2n1)O,72,12669,http://www.alfa.com/en/GP100W.pgm?DSSTK=L06989,Alfa Aesar,2,72,73.8,1.8
6731,cyclopentanone oxime,C1CCC(=NO)C1,56,13844,http://www.alfa.com/en/GP100W.pgm?DSSTK=B24961,Alfa Aesar,2,56,57.8,1.8
14199,2-chloro-6-nitrotoluene,Cc1c(cccc1Cl)[N+]([O-])=O,36,6484,http://www.amazon.com/dp/B003XEQTLE,Aldrich Chemical Company; Aldrich Catalog-Handbook of Fine Chemicals; Milwaukee; WI; 1984.,3,36,37.8,1.8
14446,"methyl_3,4-dimethoxybenzoate",COc1cc(ccc1OC)C(=O)OC,60,21159598,http://www.amazon.com/dp/B003XEQTLE,Aldrich Chemical Company; Aldrich Catalog-Handbook of Fine Chemicals; Milwaukee; WI; 1984.,3,59,60.8,1.8
14230,"a,a'-dichloro-m-xylene",ClCc1cccc(CCl)c1,36,21168838,http://www.amazon.com/dp/B003XEQTLE,Aldrich Chemical Company; Aldrich Catalog-Handbook of Fine Chemicals; Milwaukee; WI; 1984.,3,34.2,36,1.8
15878,Lauric acid,O=C(O)CCCCCCCCCCC,45,3756,http://msds.chem.ox.ac.uk/,academic website,4,43.2,45,1.8
15618,Biacetyl,CC(=O)C(C)=O,-3,630,http://msds.chem.ox.ac.uk/,academic website,3,-3,-1.2,1.8
16038,Octadecafluorooctane,FC(F)(C(F)(F)C(F)(F)F)C(F)(F)C(F)(F)C(F)(F)C(F)(F)C(F)(F)F,-25,9018,http://msds.chem.ox.ac.uk/,academic website,2,-25,-23.2,1.8
922,(1R)-camphor,C[C@@]12CC[C@@H](C1(C)C)CC2=O,178,139902,http://www.alfa.com/en/GP100W.pgm?DSSTK=A10708,Alfa Aesar,2,178,179.8,1.8
8900,spiperone,Fc1ccc(cc1)C(=O)CCCN2CCC3(CC2)N(CNC3=O)c4ccccc4,190,5075,http://dx.doi.org/10.1021/ci020280x,Bergstrom C. A. S.; Norinder U.; Luthman K.; Artursson P. Molecular Descriptors Influencing Melting Point and Their Role in Classification of Solid Drugs. J. Chem. Inf. Comput. Sci.; (Article); 2003; 43(4); 1177-1346,3,190,191.8,1.8
3138,3-(4-hydroxyphenyl)propionic acid,c1cc(ccc1CCC(=O)O)O,129,9965,http://www.alfa.com/en/GP100W.pgm?DSSTK=A14567,Alfa Aesar,3,129,130.8,1.8
14726,"2,4,6-triiodophenol",Ic1cc(I)c(O)c(I)c1,158,11369,http://www.amazon.com/dp/B003XEQTLE,Aldrich Chemical Company; Aldrich Catalog-Handbook of Fine Chemicals; Milwaukee; WI; 1984.,3,158,159.8,1.8
838,1-(2-hydroxyethyl)piperidine,C1CCN(CC1)CCO,16,17221,http://www.alfa.com/en/GP100W.pgm?DSSTK=B23816,Alfa Aesar,2,16,17.9,1.9
6886,"dimethyl 1,10-decanedicarboxylate",COC(=O)CCCCCCCCCCC(=O)OC,30,67007,http://www.alfa.com/en/GP100W.pgm?DSSTK=L08757,Alfa Aesar,2,30,31.9,1.9
15987,N-Cyclohexylcyclohexanamine,C1CCCCC1NC2CCCCC2,-1,7301,http://msds.chem.ox.ac.uk/,academic website,4,-2,-0.1,1.9
15895,Methanethiol,CS,-121,855,http://msds.chem.ox.ac.uk/,academic website,2,-123,-121,2
7004,D-pantolactone,CC1(COC(=O)C1O)C,90,964,http://www.alfa.com/en/GP100W.pgm?DSSTK=L15983,Alfa Aesar,2,90,92,2
15393,3-Nitropropanoic acid,[O-][N+](=O)CCC(=O)O,64,1615,http://msds.chem.ox.ac.uk/,academic website,2,62,64,2
2355,2-chloro-4-nitrobenzamide,c1cc(c(cc1[N+](=O)[O-])Cl)C(=O)N,170,1991,http://www.alfa.com/en/GP100W.pgm?DSSTK=A19702,Alfa Aesar,2,170,172,2
6923,dimethyl tetrachloroterephthalate,COC(=O)c1c(c(c(c(c1Cl)Cl)C(=O)OC)Cl)Cl,157,2839,http://www.alfa.com/en/GP100W.pgm?DSSTK=L08800,Alfa Aesar,2,155,157,2
6788,dibenzothiophene,c1ccc2c(c1)c3ccccc3s2,99,2915,http://www.alfa.com/en/GP100W.pgm?DSSTK=A12288,Alfa Aesar,2,97,99,2
3521,"3,5-dinitrobenzamide",c1c(cc(cc1[N+](=O)[O-])[N+](=O)[O-])C(=O)N,182,4355,http://www.alfa.com/en/GP100W.pgm?DSSTK=B21865,Alfa Aesar,2,182,184,2
8976,penbutolol,CC(C)(C)NCC(O)COc1ccccc1C2CCCC2,68,4562,http://dx.doi.org/10.1021/ci020280x,Bergstrom C. A. S.; Norinder U.; Luthman K.; Artursson P. Molecular Descriptors Influencing Melting Point and Their Role in Classification of Solid Drugs. J. Chem. Inf. Comput. Sci.; (Article); 2003; 43(4); 1177-1422,2,68,70,2
2319,"2-chloro-4,6-bis(ethylamino)-1,3,5-triazine",CCNc1nc(nc(n1)Cl)NCC,228,5027,http://www.alfa.com/en/GP100W.pgm?DSSTK=L03947,Alfa Aesar,2,226,228,2
8993,testosterone,CC34CCC1C(CCC2=CC(=O)CCC12C)C3CCC4O,153,5215,http://dx.doi.org/10.1021/ci020280x,Bergstrom C. A. S.; Norinder U.; Luthman K.; Artursson P. Molecular Descriptors Influencing Melting Point and Their Role in Classification of Solid Drugs. J. Chem. Inf. Comput. Sci.; (Article); 2003; 43(4); 1177-1439,2,153,155,2
16147,Tetraphene,c1c4ccccc4cc3c1ccc2ccccc23,158,5739,http://msds.chem.ox.ac.uk/,academic website,2,158,160,2
2063,2-benzoxazolinone,c1ccc2c(c1)[nH]c(=O)o2,140,5820,http://www.alfa.com/en/GP100W.pgm?DSSTK=A19378,Alfa Aesar,2,138,140,2
15227,2-Aminoethanethiol,NCCS,96,5834,http://msds.chem.ox.ac.uk/,academic website,2,96,98,2
1080,"2,2,2-tribromoethanol",C(C(Br)(Br)Br)O,79,6160,http://www.alfa.com/en/GP100W.pgm?DSSTK=A18706,Alfa Aesar,2,79,81,2
5642,"5,5-dimethylhydantoin",CC1(C(=O)NC(=O)N1)C,176,6246,http://www.alfa.com/en/GP100W.pgm?DSSTK=L03388,Alfa Aesar,2,176,178,2
4978,4-chlorodiphenyl sulfone,c1ccc(cc1)S(=O)(=O)c2ccc(cc2)Cl,92,6369,http://www.alfa.com/en/GP100W.pgm?DSSTK=B25524,Alfa Aesar,2,92,94,2
157,1-indanone,c1ccc2c(c1)CCC2=O,40,6479,http://www.alfa.com/en/GP100W.pgm?DSSTK=A11056,Alfa Aesar,2,40,42,2
6962,diphenyl phthalate,c1ccc(cc1)OC(=O)c2ccccc2C(=O)Oc3ccccc3,75,6520,http://www.alfa.com/en/GP100W.pgm?DSSTK=A14449,Alfa Aesar,2,73,75,2
2065,2-benzoylbenzoic acid,c1ccc(cc1)C(=O)c2ccccc2C(=O)O,129,6554,http://www.alfa.com/en/GP100W.pgm?DSSTK=A13281,Alfa Aesar,2,127,129,2
5996,5-methylsalicylic acid,Cc1ccc(c(c1)C(=O)O)O,153,6707,http://www.alfa.com/en/GP100W.pgm?DSSTK=B20040,Alfa Aesar,2,151,153,2
1505,"2',4'-dihydroxyacetophenone",CC(=O)c1ccc(cc1O)O,144,6724,http://www.alfa.com/en/GP100W.pgm?DSSTK=A12066,Alfa Aesar,2,144,146,2
2914,2-methylbenzyl bromide,Cc1ccccc1CBr,19,6726,http://www.alfa.com/en/GP100W.pgm?DSSTK=B21717,Alfa Aesar,2,19,21,2
1300,"2,3-dihydroxynaphthalene",c1ccc2cc(c(cc2c1)O)O,164,6824,http://www.alfa.com/en/GP100W.pgm?DSSTK=A11307,Alfa Aesar,2,162,164,2
1677,"2,5-diphenyloxazole",c1ccc(cc1)c2cnc(o2)c3ccccc3,72,6838,http://www.alfa.com/en/GP100W.pgm?DSSTK=A10654,Alfa Aesar,2,72,74,2
1662,"2,5-dimethylbenzothiazole",Cc1ccc2c(c1)nc(s2)C,40,6957,http://www.alfa.com/en/GP100W.pgm?DSSTK=A14830,Alfa Aesar,2,38,40,2
561,"1,3-di-o-tolylguanidine",Cc1ccccc1NC(=N)Nc2ccccc2C,177,7056,http://www.alfa.com/en/GP100W.pgm?DSSTK=B25127,Alfa Aesar,2,177,179,2
1730,"2,6-dichloro-4-nitroaniline",c1c(cc(c(c1Cl)N)Cl)[N+](=O)[O-],189,7152,http://www.alfa.com/en/GP100W.pgm?DSSTK=B24283,Alfa Aesar,2,189,191,2
5510,4-nitrostyrene,C=Cc1ccc(cc1)[N+](=O)[O-],27,7201,http://www.alfa.com/en/GP100W.pgm?DSSTK=H30118,Alfa Aesar,2,27,29,2
15022,1-Ethoxy-4-nitrobenzene,CCOc1ccc(cc1)[N+]([O-])=O,58,7214,http://msds.chem.ox.ac.uk/,academic website,2,58,60,2
2525,2-cyanopyridine,c1ccnc(c1)C#N,27,7241,http://www.alfa.com/en/GP100W.pgm?DSSTK=A12900,Alfa Aesar,2,27,29,2
950,2-(3-chlorophenoxy)propionic acid,CC(C(=O)O)Oc1cccc(c1)Cl,115,7261,http://www.alfa.com/en/GP100W.pgm?DSSTK=L08311,Alfa Aesar,2,113,115,2
3130,"3-(4-chlorophenoxy)-1,2-propanediol",c1cc(ccc1OCC(CO)O)Cl,80,7411,http://www.alfa.com/en/GP100W.pgm?DSSTK=A17386,Alfa Aesar,2,78,80,2
3855,3-chloropropionic acid,C(CCl)C(=O)O,39,7611,http://www.alfa.com/en/GP100W.pgm?DSSTK=B21744,Alfa Aesar,2,39,41,2
3226,"3,3'-thiodipropionic acid",C(CSCCC(=O)O)C(=O)O,131,7805,http://www.alfa.com/en/GP100W.pgm?DSSTK=A17220,Alfa Aesar,2,129,131,2
7208,ethyl stearate,CCCCCCCCCCCCCCCCCC(=O)OCC,35,7830,http://www.alfa.com/en/GP100W.pgm?DSSTK=A16807,Alfa Aesar,2,33,35,2
6250,8-amino-2-naphthol,c1cc2ccc(cc2c(c1)N)O,208,8055,http://www.alfa.com/en/GP100W.pgm?DSSTK=A19404,Alfa Aesar,2,206,208,2
2911,2-methylbenzothiazole,Cc1nc2ccccc2s1,12,8138,http://www.alfa.com/en/GP100W.pgm?DSSTK=A13427,Alfa Aesar,2,12,14,2
2446,2-chloroanthraquinone,c1ccc2c(c1)C(=O)c3ccc(cc3C2=O)Cl,209,8235,http://www.alfa.com/en/GP100W.pgm?DSSTK=B22938,Alfa Aesar,2,209,211,2
1508,"2,4-dihydroxybenzophenone",c1ccc(cc1)C(=O)c2ccc(cc2O)O,146,8254,http://www.alfa.com/en/GP100W.pgm?DSSTK=A13749,Alfa Aesar,2,144,146,2
8394,resorcinol monobenzoate,c1ccc(cc1)C(=O)Oc2cccc(c2)O,132,8366,http://www.alfa.com/en/GP100W.pgm?DSSTK=A19150,Alfa Aesar,2,132,134,2
7836,"N,N'-dibenzylethylenediamine",c1ccc(cc1)CNCCNCc2ccccc2,24,8463,http://www.alfa.com/en/GP100W.pgm?DSSTK=L03540,Alfa Aesar,2,24,26,2
15462,4H-Cyclopenta[def]phenanthrene,c1cc2cccc3Cc4cccc1c4c23,116,8793,http://msds.chem.ox.ac.uk/,academic website,2,114,116,2
6445,benzo[h]quinoline,c1ccc2c(c1)ccc3c2nccc3,50,8836,http://www.alfa.com/en/GP100W.pgm?DSSTK=A17794,Alfa Aesar,2,50,52,2
5142,4'-fluoroacetanilide,CC(=O)Nc1ccc(cc1)F,152,9225,http://www.alfa.com/en/GP100W.pgm?DSSTK=A18974,Alfa Aesar,2,152,154,2
2608,2-fluoro-4-nitrophenol,c1cc(c(cc1[N+](=O)[O-])F)O,119,9442,http://www.alfa.com/en/GP100W.pgm?DSSTK=A13134,Alfa Aesar,2,119,121,2
1065,2-(trifluoromethyl)benzoic acid,c1ccc(c(c1)C(=O)O)C(F)(F)F,109,9515,http://www.alfa.com/en/GP100W.pgm?DSSTK=A16093,Alfa Aesar,2,109,111,2
3935,3-fluoro-4-methylaniline,Cc1ccc(cc1F)N,33,9563,http://www.alfa.com/en/GP100W.pgm?DSSTK=A14484,Alfa Aesar,2,31,33,2
15541,7-Isopropyl-1-methylphenanthrene,CC(C)c2cc3ccc1c(cccc1C)c3cc2,99,9805,http://msds.chem.ox.ac.uk/,academic website,2,99,101,2
383,18-pentatriacontanone,CCCCCCCCCCCCCCCCCC(=O)CCCCCCCCCCCCCCCCC,87,10009,http://www.alfa.com/en/GP100W.pgm?DSSTK=41445,Alfa Aesar,2,87,89,2
1196,"2',3',4'-trihydroxyacetophenone",CC(=O)c1ccc(c(c1O)O)O,171,10256,http://www.alfa.com/en/GP100W.pgm?DSSTK=A14364,Alfa Aesar,2,171,173,2
2441,2'-chloroacetanilide,CC(=O)Nc1ccccc1Cl,87,10322,http://www.alfa.com/en/GP100W.pgm?DSSTK=A14711,Alfa Aesar,2,87,89,2
7429,maleimide,C1=CC(=O)NC1=O,92,10471,http://www.alfa.com/en/GP100W.pgm?DSSTK=A13135,Alfa Aesar,2,92,94,2
2966,2'-nitroacetanilide,CC(=O)Nc1ccccc1[N+](=O)[O-],92,10619,http://www.alfa.com/en/GP100W.pgm?DSSTK=A16677,Alfa Aesar,2,92,94,2
6539,bis(2-methoxyphenyl) carbonate,COc1ccccc1OC(=O)Oc2ccccc2OC,87,10633,http://www.alfa.com/en/GP100W.pgm?DSSTK=L12825,Alfa Aesar,2,87,89,2
442,"1,5-dimethylnaphthalene",Cc1cccc2c1cccc2C,80,10831,http://www.alfa.com/en/GP100W.pgm?DSSTK=A16819,Alfa Aesar,2,80,82,2
3849,3-chlorophenoxyacetic acid,c1cc(cc(c1)Cl)OCC(=O)O,108,11013,http://www.alfa.com/en/GP100W.pgm?DSSTK=L00939,Alfa Aesar,2,108,110,2
8022,N-butylurea,CCCCNC(=O)N,95,11107,http://www.alfa.com/en/GP100W.pgm?DSSTK=L02854,Alfa Aesar,2,95,97,2
6779,diallyl sulfide,C=CCSCC=C,-83,11128,http://www.alfa.com/en/GP100W.pgm?DSSTK=L10971,Alfa Aesar,2,-85,-83,2
2876,2-methyl-3-nitroaniline,Cc1c(cccc1[N+](=O)[O-])N,90,11290,http://www.alfa.com/en/GP100W.pgm?DSSTK=A10347,Alfa Aesar,2,90,92,2
6744,dansyl chloride,CN(C)c1cccc2c1cccc2S(=O)(=O)Cl,72,11308,http://www.alfa.com/en/GP100W.pgm?DSSTK=A13828,Alfa Aesar,2,70,72,2
6267,8-nitroquinoline,c1cc2cccnc2c(c1)[N+](=O)[O-],88,11337,http://www.alfa.com/en/GP100W.pgm?DSSTK=B23574,Alfa Aesar,2,88,90,2
1582,"2,5-dibromobenzoic acid",c1cc(c(cc1Br)C(=O)O)Br,155,11398,http://www.alfa.com/en/GP100W.pgm?DSSTK=A15077,Alfa Aesar,2,155,157,2
5720,5-aminoquinoline,c1cc(c2cccnc2c1)N,108,11417,http://www.alfa.com/en/GP100W.pgm?DSSTK=L19628,Alfa Aesar,2,108,110,2
2504,2-chloroquinoline,c1ccc2c(c1)ccc(n2)Cl,36,11434,http://www.alfa.com/en/GP100W.pgm?DSSTK=B23443,Alfa Aesar,2,36,38,2
14318,"3,3'-dimethylbiphenyl",Cc1cccc(c1)c2cc(C)ccc2,7,11437,http://www.amazon.com/dp/B002IYRJWI,American Petroleum Institute. Research Project 44; Selected Values of Properties of Hydrocarbons and Related Compounds. Texas A & M University; College Station; TX; 1973.,2,7,9,2
14341,"3,5-dinitroaniline",O=[N+]([O-])c1cc(cc(N)c1)[N+]([O-])=O,161,11571,http://www.amazon.com/dp/B003XEQTLE,Aldrich Chemical Company; Aldrich Catalog-Handbook of Fine Chemicals; Milwaukee; WI; 1984.,2,161,163,2
13952,p-formyl_benzoic_acid,OC(=O)c1ccc(C=O)cc1,247,11591,http://www.amazon.com/dp/B003XEQTLE,Aldrich Chemical Company; Aldrich Catalog-Handbook of Fine Chemicals; Milwaukee; WI; 1984.,2,245,247,2
4018,3-hydroxyphenylacetic acid,c1cc(cc(c1)O)CC(=O)O,130,11624,http://www.alfa.com/en/GP100W.pgm?DSSTK=B23563,Alfa Aesar,2,130,132,2
7250,formic acid hydrazide,C(=O)NN,57,11728,http://www.alfa.com/en/GP100W.pgm?DSSTK=A14901,Alfa Aesar,2,55,57,2
8648,trimethylacetonitrile,CC(C)(C)C#N,17,11909,http://www.alfa.com/en/GP100W.pgm?DSSTK=A12011,Alfa Aesar,2,15,17,2
5422,4-methylvaleric acid,CC(C)CCC(=O)O,-35,12067,http://www.alfa.com/en/GP100W.pgm?DSSTK=A15405,Alfa Aesar,2,-35,-33,2
5974,5-methyl-2-nitrophenol,Cc1ccc(c(c1)O)[N+](=O)[O-],55,12263,http://www.alfa.com/en/GP100W.pgm?DSSTK=A11729,Alfa Aesar,2,53,55,2
6363,"alpha,alpha-dimethylphenylacetic acid",CC(C)(c1ccccc1)C(=O)O,81,12667,http://www.alfa.com/en/GP100W.pgm?DSSTK=32884,Alfa Aesar,2,79,81,2
2902,2-methyl-8-nitroquinoline,Cc1ccc2cccc(c2n1)[N+](=O)[O-],138,12858,http://www.alfa.com/en/GP100W.pgm?DSSTK=L03006,Alfa Aesar,2,138,140,2
6958,diphenyl disulfide,c1ccc(cc1)SSc2ccccc2,60,12861,http://www.alfa.com/en/GP100W.pgm?DSSTK=A12586,Alfa Aesar,2,60,62,2
15143,"2,3,6-Trichlorophenol",Oc1c(Cl)ccc(Cl)c1Cl,56,13029,http://msds.chem.ox.ac.uk/,academic website,2,56,58,2
1815,"2,6-dimethyl-4-pyrone",Cc1cc(=O)cc(o1)C,134,13262,http://www.alfa.com/en/GP100W.pgm?DSSTK=A12799,Alfa Aesar,2,132,134,2
14848,[5-Chloro-2-(methylamino)phenyl](phenyl)methanone,CNc1ccc(Cl)cc1C(=O)c2ccccc2,94,13323,http://msds.chem.ox.ac.uk/,academic website,2,94,96,2
15562,9-Vinyl-9H-carbazole,C=Cn3c1ccccc1c2ccccc23,63,14414,http://msds.chem.ox.ac.uk/,academic website,2,63,65,2
15771,Dodecyl(dimethyl)amine oxide,C[N+]([O-])(C)CCCCCCCCCCCC,132.5,14688,http://msds.chem.ox.ac.uk/,academic website,2,130.5,132.5,2
3074,2-undecanol,CCCCCCCCCC(C)O,2,14700,http://www.alfa.com/en/GP100W.pgm?DSSTK=A14441,Alfa Aesar,2,0,2,2
3071,2-tridecanol,CCCCCCCCCCCC(C)O,25,14701,http://www.alfa.com/en/GP100W.pgm?DSSTK=L01926,Alfa Aesar,2,23,25,2
4064,3-methoxyphenylacetic acid,COc1cccc(c1)CC(=O)O,70,14948,http://www.alfa.com/en/GP100W.pgm?DSSTK=A10951,Alfa Aesar,2,70,72,2
3292,"3,4-dichlorobenzyl alcohol",c1cc(c(cc1CO)Cl)Cl,38,14956,http://www.alfa.com/en/GP100W.pgm?DSSTK=A13236,Alfa Aesar,2,36,38,2
2030,2-amino-6-methylpyridine,Cc1cccc(n1)N,43,14991,http://www.alfa.com/en/GP100W.pgm?DSSTK=A10444,Alfa Aesar,2,41,43,2
13412,4-octyne,CCCC#CCCC,-103,15221,http://www.amazon.com/dp/B003XEQTLE,Aldrich Chemical Company; Aldrich Catalog-Handbook of Fine Chemicals; Milwaukee; WI; 1984.,2,-103,-101,2
14012,"3,4-dimethoxyphenol",COc1cc(O)ccc1OC,83,15420,http://www.amazon.com/dp/B003XEQTLE,Aldrich Chemical Company; Aldrich Catalog-Handbook of Fine Chemicals; Milwaukee; WI; 1984.,2,81,83,2
14388,3-chlorobiphenyl,Clc1cc(ccc1)c2ccccc2,18,15488,http://de.wikipedia.org/wiki/Beilsteins_Handbuch_der_Organischen_Chemie,Beilstein F. K.; Beilsteins Handbuch der Organischen Chemie. Springer; Berlin; 1972.,2,16,18,2
1816,"2',6'-dimethylacetanilide",Cc1cccc(c1NC(=O)C)C,181,15753,http://www.alfa.com/en/GP100W.pgm?DSSTK=B25687,Alfa Aesar,2,181,183,2
1759,"2,6-dichloropyridine",c1cc(nc(c1)Cl)Cl,86,16095,http://www.alfa.com/en/GP100W.pgm?DSSTK=A11364,Alfa Aesar,2,86,88,2
5519,4-n-octyloxybenzoic acid,CCCCCCCCOc1ccc(cc1)C(=O)O,103,16310,http://www.alfa.com/en/GP100W.pgm?DSSTK=B22659,Alfa Aesar,2,101,103,2
4445,"4,4'-thiodiphenol",c1cc(ccc1O)Sc2ccc(cc2)O,153,16612,http://www.alfa.com/en/GP100W.pgm?DSSTK=L04308,Alfa Aesar,2,153,155,2
88,1-octadecanethiol,CCCCCCCCCCCCCCCCCCS,32,16913,http://www.alfa.com/en/GP100W.pgm?DSSTK=L04123,Alfa Aesar,2,30,32,2
174,1-hexadecanethiol,CCCCCCCCCCCCCCCCS,21,17019,http://www.alfa.com/en/GP100W.pgm?DSSTK=L15099,Alfa Aesar,2,19,21,2
3409,"3,5-dibromosalicylic acid",c1c(cc(c(c1C(=O)O)O)Br)Br,226,17440,http://www.alfa.com/en/GP100W.pgm?DSSTK=B25642,Alfa Aesar,2,226,228,2
3804,3-chloro-4-hydroxybenzoic acid,c1cc(c(cc1C(=O)O)Cl)O,169,18708,http://www.alfa.com/en/GP100W.pgm?DSSTK=A12134,Alfa Aesar,2,169,171,2
1361,"2,4,6-tribromo-3-methylphenol",Cc1c(cc(c(c1Br)O)Br)Br,82,19526,http://www.alfa.com/en/GP100W.pgm?DSSTK=L09183,Alfa Aesar,2,82,84,2
4597,4-aminobenzhydrazide,c1cc(ccc1C(=O)NN)N,228,20160,http://www.alfa.com/en/GP100W.pgm?DSSTK=A10963,Alfa Aesar,2,226,228,2
4797,4-bromobenzhydrazide,c1cc(ccc1C(=O)NN)Br,168,20861,http://www.alfa.com/en/GP100W.pgm?DSSTK=A18918,Alfa Aesar,2,166,168,2
15215,2-[4-(2-Hydroxyethyl)piperazin-4-ium-1-yl]ethanesulfonate,[O-]S(=O)(=O)CCN1CC[NH+](CC1)CCO,236,22278,http://msds.chem.ox.ac.uk/,academic website,2,234,236,2
4622,4-benzoylpyridine,c1ccc(cc1)C(=O)c2ccncc2,70,24905,http://www.alfa.com/en/GP100W.pgm?DSSTK=A17945,Alfa Aesar,2,70,72,2
8905,taurolidine,O=S1(=O)CCN(CN1)CN2CCS(=O)(=O)NC2,154,27486,http://dx.doi.org/10.1021/ci020280x,Bergstrom C. A. S.; Norinder U.; Luthman K.; Artursson P. Molecular Descriptors Influencing Melting Point and Their Role in Classification of Solid Drugs. J. Chem. Inf. Comput. Sci.; (Article); 2003; 43(4); 1177-1351,2,154,156,2
549,"1,3-phenylene diisocyanate",c1cc(cc(c1)N=C=O)N=C=O,48,29002,http://www.alfa.com/en/GP100W.pgm?DSSTK=L04642,Alfa Aesar,2,48,50,2
8026,N-chlorosuccinimide,C1CC(=O)N(C1=O)Cl,148,29129,http://www.alfa.com/en/GP100W.pgm?DSSTK=A10310,Alfa Aesar,2,148,150,2
5019,4'-cyanoacetanilide,CC(=O)Nc1ccc(cc1)C#N,205,34195,http://www.alfa.com/en/GP100W.pgm?DSSTK=A14941,Alfa Aesar,2,205,207,2
319,"1-bromo-2,3-dichlorobenzene",c1cc(c(c(c1)Br)Cl)Cl,58,38364,http://www.alfa.com/en/GP100W.pgm?DSSTK=B21904,Alfa Aesar,2,58,60,2
676,"1,2-dibromo-2,4-dicyanobutane",C(CC(CBr)(C#N)Br)C#N,50,55806,http://www.alfa.com/en/GP100W.pgm?DSSTK=L18725,Alfa Aesar,2,50,52,2
4831,4-bromothiophenol,c1cc(ccc1S)Br,75,59439,http://www.alfa.com/en/GP100W.pgm?DSSTK=A10555,Alfa Aesar,2,73,75,2
4827,4'-bromopropiophenone,CCC(=O)c1ccc(cc1)Br,46,59691,http://www.alfa.com/en/GP100W.pgm?DSSTK=A14349,Alfa Aesar,2,46,48,2
493,"1,4-dibromonaphthalene",c1ccc2c(c1)c(ccc2Br)Br,81,59892,http://www.alfa.com/en/GP100W.pgm?DSSTK=A18171,Alfa Aesar,2,81,83,2
1467,"2,4'-dichlorobenzophenone",c1ccc(c(c1)C(=O)c2ccc(cc2)Cl)Cl,65,59928,http://www.alfa.com/en/GP100W.pgm?DSSTK=L07648,Alfa Aesar,2,65,67,2
593,"1,3-dibenzoyloxybenzene",c1ccc(cc1)C(=O)Oc2cccc(c2)OC(=O)c3ccccc3,118,60108,http://www.alfa.com/en/GP100W.pgm?DSSTK=A11983,Alfa Aesar,2,116,118,2
6414,benzeneboronic acid,B(c1ccccc1)(O)O,217,60191,http://www.alfa.com/en/GP100W.pgm?DSSTK=A14257,Alfa Aesar,2,217,219,2
4490,"4,6-dichlororesorcinol",c1c(c(cc(c1O)Cl)Cl)O,115,60631,http://www.alfa.com/en/GP100W.pgm?DSSTK=B20500,Alfa Aesar,2,113,115,2
2414,2-chloro-6-fluorobenzoic acid,c1cc(c(c(c1)Cl)C(=O)O)F,158,61264,http://www.alfa.com/en/GP100W.pgm?DSSTK=A11250,Alfa Aesar,2,158,160,2
2654,2-fluorobenzamide,c1ccc(c(c1)C(=O)N)F,116,61279,http://www.alfa.com/en/GP100W.pgm?DSSTK=L07870,Alfa Aesar,2,116,118,2
4554,"4-amino-2,6-dimethylpyrimidine",Cc1cc(nc(n1)C)N,185,61354,http://www.alfa.com/en/GP100W.pgm?DSSTK=B22175,Alfa Aesar,2,183,185,2
4801,4-bromobenzoyl chloride,c1cc(ccc1C(=O)Cl)Br,40,61790,http://www.alfa.com/en/GP100W.pgm?DSSTK=L03794,Alfa Aesar,2,40,42,2
6981,di-p-tolyl sulfone,Cc1ccc(cc1)S(=O)(=O)c2ccc(cc2)C,157,62252,http://www.alfa.com/en/GP100W.pgm?DSSTK=A12176,Alfa Aesar,2,157,159,2
15392,3-Nitrophthalic acid,O=[N+]([O-])c1cccc(c1C(=O)O)C(=O)O,210,62265,http://msds.chem.ox.ac.uk/,academic website,2,210,212,2