key,name,smiles,mpC,csid,link,source,count,min,max,range
5083,4-ethylresorcinol,CCc1ccc(cc1O)O,97,16931,http://www.alfa.com/en/GP100W.pgm?DSSTK=B21575,Alfa Aesar,2,97,98.5,1.5
4532,4-acetylbutyric acid,CC(=O)CCCC(=O)O,12,17383,http://www.alfa.com/en/GP100W.pgm?DSSTK=L03978,Alfa Aesar,2,12,13.5,1.5
4177,3-phenoxybenzoic acid,c1ccc(cc1)Oc2cccc(c2)C(=O)O,148,18409,http://www.alfa.com/en/GP100W.pgm?DSSTK=A14831,Alfa Aesar,2,148,149.5,1.5
4710,4-bromo-2-chlorophenol,c1cc(c(cc1Br)Cl)O,49,18707,http://www.alfa.com/en/GP100W.pgm?DSSTK=B24803,Alfa Aesar,2,49,50.5,1.5
15147,"2,3-Dimethoxybenzonitrile",COc1cccc(C#N)c1OC,44.5,20548,http://msds.chem.ox.ac.uk/,academic website,2,44.5,46,1.5
8602,tribenzylamine,c1ccc(cc1)CN(Cc2ccccc2)Cc3ccccc3,93,22739,http://www.alfa.com/en/GP100W.pgm?DSSTK=B23797,Alfa Aesar,2,91.5,93,1.5
4049,3-methoxy-4-methylaniline,Cc1ccc(cc1OC)N,58,25942,http://www.alfa.com/en/GP100W.pgm?DSSTK=H50362,Alfa Aesar,2,56.5,58,1.5
12862,FTHALIDE,Clc1c2COC(=O)c2c(Cl)c(Cl)c1Cl,208,31144,http://dx.doi.org/10.1021/ci0500132,Karthikeyan M.; Glen R.C.; Bender A. General melting point prediction based on a diverse compound dataset and artificial neural networks. J. Chem. Inf. Model.; 2005; 45(3); 581-4444,2,208,209.5,1.5
1108,"2,2':5',2''-terthiophene",c1cc(sc1)c2ccc(s2)c3cccs3,92,58578,http://www.alfa.com/en/GP100W.pgm?DSSTK=A16748,Alfa Aesar,2,92,93.5,1.5
8182,octamethylcyclotetrasilazane,C[Si]1(N[Si](N[Si](N[Si](N1)(C)C)(C)C)(C)C)C,96,59489,http://www.alfa.com/en/GP100W.pgm?DSSTK=L16563,Alfa Aesar,2,96,97.5,1.5
14337,"1,4-dimethoxy-2-nitrobenzene",COc1ccc(cc1[N+]([O-])=O)OC,71,60006,http://de.wikipedia.org/wiki/Beilsteins_Handbuch_der_Organischen_Chemie,Beilstein F. K.; Beilsteins Handbuch der Organischen Chemie. Springer; Berlin; 1972.,2,71,72.5,1.5
1469,"2,4-dichlorobenzoyl chloride",c1cc(c(cc1Cl)Cl)C(=O)Cl,18,60012,http://www.alfa.com/en/GP100W.pgm?DSSTK=B20815,Alfa Aesar,2,16.5,18,1.5
4394,"4,4-bis(4-hydroxyphenyl)valeric acid",CC(CCC(=O)O)(c1ccc(cc1)O)c2ccc(cc2)O,173,60518,http://www.alfa.com/en/GP100W.pgm?DSSTK=L14338,Alfa Aesar,2,171.5,173,1.5
5138,4-fluoro-3-nitroaniline,c1cc(c(cc1N)[N+](=O)[O-])F,96,61087,http://www.alfa.com/en/GP100W.pgm?DSSTK=A15371,Alfa Aesar,2,96,97.5,1.5
3185,3-(trifluoromethyl)benzonitrile,c1cc(cc(c1)C(F)(F)F)C#N,16,61101,http://www.alfa.com/en/GP100W.pgm?DSSTK=A17029,Alfa Aesar,2,14.5,16,1.5
1096,"2,2,3,3,4,4-hexafluoro-1,5-pentanediol",C(C(C(C(CO)(F)F)(F)F)(F)F)O,78,61148,http://www.alfa.com/en/GP100W.pgm?DSSTK=B21917,Alfa Aesar,2,78,79.5,1.5
5177,4-fluorostyrene,C=Cc1ccc(cc1)F,-36,61200,http://www.alfa.com/en/GP100W.pgm?DSSTK=A14775,Alfa Aesar,2,-36,-34.5,1.5
6069,6-azauracil,c1c(=O)[nH]c(=O)[nH]n1,276,61352,http://www.alfa.com/en/GP100W.pgm?DSSTK=A14389,Alfa Aesar,2,274.5,276,1.5
5002,4-chromanone,c1ccc2c(c1)C(=O)CCO2,38,61418,http://www.alfa.com/en/GP100W.pgm?DSSTK=A11242,Alfa Aesar,2,36.5,38,1.5
2851,2-methoxyphenyl benzoate,COc1ccccc1OC(=O)c2ccccc2,59,61569,http://www.alfa.com/en/GP100W.pgm?DSSTK=L08544,Alfa Aesar,2,57.5,59,1.5
12826,Opianyl,O=C1OCc2ccc(OC)c(OC)c21,101,61717,http://dx.doi.org/10.1021/ci0500132,Karthikeyan M.; Glen R.C.; Bender A. General melting point prediction based on a diverse compound dataset and artificial neural networks. J. Chem. Inf. Model.; 2005; 45(3); 581-4408,2,101,102.5,1.5
423,"1,7-dihydroxynaphthalene",c1cc2ccc(cc2c(c1)O)O,182,61739,http://www.alfa.com/en/GP100W.pgm?DSSTK=H28261,Alfa Aesar,2,180.5,182,1.5
6855,diethyl sulfone,CCS(=O)(=O)CC,72,62226,http://www.alfa.com/en/GP100W.pgm?DSSTK=A17439,Alfa Aesar,2,72,73.5,1.5
1635,"2',5'-dihydroxypropiophenone",CCC(=O)c1cc(ccc1O)O,98,63495,http://www.alfa.com/en/GP100W.pgm?DSSTK=A12912,Alfa Aesar,2,96.5,98,1.5
94,1-n-hexyltheobromine,CCCCCCn1c(=O)c2c(ncn2C)n(c1=O)C,81,63738,http://www.alfa.com/en/GP100W.pgm?DSSTK=L13597,Alfa Aesar,2,81,82.5,1.5
14424,4-butoxybenzoic_acid,O=C(O)c1ccc(OCCCC)cc1,147,65785,http://www.amazon.com/dp/B003XEQTLE,Aldrich Chemical Company; Aldrich Catalog-Handbook of Fine Chemicals; Milwaukee; WI; 1984.,2,147,148.5,1.5
7197,ethyl oxanilate,CCOC(=O)C(=O)Nc1ccccc1,67,66460,http://www.alfa.com/en/GP100W.pgm?DSSTK=B23285,Alfa Aesar,2,65.5,67,1.5
7294,hexamethyldisilane,C[Si](C)(C)[Si](C)(C)C,12,66675,http://www.alfa.com/en/GP100W.pgm?DSSTK=A13155,Alfa Aesar,2,12,13.5,1.5
1966,2-amino-4-methylthiazole,Cc1csc(n1)N,44,66754,http://www.alfa.com/en/GP100W.pgm?DSSTK=A14847,Alfa Aesar,2,44,45.5,1.5
750,"1,18-octadecanedicarboxylic acid",C(CCCCCCCCCC(=O)O)CCCCCCCCC(=O)O,127,68030,http://www.alfa.com/en/GP100W.pgm?DSSTK=42004,Alfa Aesar,2,125.5,127,1.5
3355,"3,4-dimethylbenzophenone",Cc1ccc(cc1C)C(=O)c2ccccc2,46,68247,http://www.alfa.com/en/GP100W.pgm?DSSTK=B20965,Alfa Aesar,2,46,47.5,1.5
15033,1H-Benzotriazol-1-ol,On2nnc1ccccc12,159,68282,http://msds.chem.ox.ac.uk/,academic website,2,157.5,159,1.5
15358,"3,5-Di-tert-butyl-1,2-benzoquinone",O=C1C(=CC(=CC1=O)C(C)(C)C)C(C)(C)C,113.5,69366,http://msds.chem.ox.ac.uk/,academic website,2,113.5,115,1.5
6598,butyric acid hydrazide,CCCC(=O)NN,44,69525,http://www.alfa.com/en/GP100W.pgm?DSSTK=L01971,Alfa Aesar,2,44,45.5,1.5
12755,4-(4-methoxyphenyl)butanoic acid,O=C(O)CCCc1ccc(OC)cc1,59,70652,http://dx.doi.org/10.1021/ci0500132,Karthikeyan M.; Glen R.C.; Bender A. General melting point prediction based on a diverse compound dataset and artificial neural networks. J. Chem. Inf. Model.; 2005; 45(3); 581-4337,2,57.5,59,1.5
1870,2-acetyl-5-methylthiophene,Cc1ccc(s1)C(=O)C,26,75479,http://www.alfa.com/en/GP100W.pgm?DSSTK=A11282,Alfa Aesar,2,26,27.5,1.5
4771,4-bromo-3-methyl-1h-pyrazole,Cc1c(c[nH]n1)Br,75,75563,http://www.alfa.com/en/GP100W.pgm?DSSTK=B20069,Alfa Aesar,2,75,76.5,1.5
5690,5-amino-1h-indazole,c1cc2c(cc1N)cn[nH]2,175,79400,http://www.alfa.com/en/GP100W.pgm?DSSTK=L06705,Alfa Aesar,2,175,176.5,1.5
1786,"2,6-difluorophenol",c1cc(c(c(c1)F)O)F,38,85185,http://www.alfa.com/en/GP100W.pgm?DSSTK=A16034,Alfa Aesar,2,38,39.5,1.5
6768,desyl chloride,c1ccc(cc1)C(C(=O)c2ccccc2)Cl,67,86040,http://www.alfa.com/en/GP100W.pgm?DSSTK=B21778,Alfa Aesar,2,67,68.5,1.5
12703,Terebinic Acid,O=C1OC(C)(C)C(C1)C(=O)O,176,91750,http://dx.doi.org/10.1021/ci0500132,Karthikeyan M.; Glen R.C.; Bender A. General melting point prediction based on a diverse compound dataset and artificial neural networks. J. Chem. Inf. Model.; 2005; 45(3); 581-4285,2,174.5,176,1.5
15808,Ethylphosphonic acid,CCP(=O)(O)O,61.5,177126,http://msds.chem.ox.ac.uk/,academic website,2,60,61.5,1.5
1058,2-(trifluoromethyl)acrylic acid,C=C(C(=O)O)C(F)(F)F,50,510851,http://www.alfa.com/en/GP100W.pgm?DSSTK=B22443,Alfa Aesar,2,50,51.5,1.5
12334,"2,3-Diphenylacrylic acid",O=C(O)C(=Cc1ccccc1)c1ccccc1,171,610579,http://dx.doi.org/10.1021/ci0500132,Karthikeyan M.; Glen R.C.; Bender A. General melting point prediction based on a diverse compound dataset and artificial neural networks. J. Chem. Inf. Model.; 2005; 45(3); 581-3916,2,171,172.5,1.5
6067,6-aza-2-thiothymine,Cc1c(=O)[nH]c(=S)[nH]n1,220,1061203,http://www.alfa.com/en/GP100W.pgm?DSSTK=A14167,Alfa Aesar,2,218.5,220,1.5
15313,"2-Nitrobenzene-1,4-diamine",O=[N+]([O-])c1cc(N)ccc1N,138.5,3542441,http://msds.chem.ox.ac.uk/,academic website,2,138.5,140,1.5
4448,"4',5,7-trihydroxyisoflavone",c1cc(ccc1c2coc3cc(cc(c3c2=O)O)O)O,300,4444448,http://www.alfa.com/en/GP100W.pgm?DSSTK=L14171,Alfa Aesar,2,300,301.5,1.5
5668,"5,7-dihydroxyflavone",c1ccc(cc1)c2cc(=O)c3c(cc(cc3o2)O)O,287,4444926,http://www.alfa.com/en/GP100W.pgm?DSSTK=L14178,Alfa Aesar,2,285.5,287,1.5
25628,stirofos,Clc1cc(C(=CCl)OP(=O)(OC)OC)c(Cl)cc1Cl,97.5,4447527,http://www.srcinc.com/what-we-do/product.aspx?id=133,PHYSPROP,2,96,97.5,1.5
25654,"benzaldehyde, oxime, (z)-",ON=Cc1ccccc1,36.5,4482130,http://www.srcinc.com/what-we-do/product.aspx?id=133,PHYSPROP,2,35,36.5,1.5
14748,(13Z)-Docos-13-enamide,NC(=O)CCCCCCCCCCC/C=CCCCCCCCC,79,4517399,http://msds.chem.ox.ac.uk/,academic website,2,77.5,79,1.5
6430,benzo[b]furan-2-carboxylic acid,c1ccc2c(c1)cc(o2)C(=O)O,194,10778469,http://www.alfa.com/en/GP100W.pgm?DSSTK=A15579,Alfa Aesar,2,192.5,194,1.5
3575,3-acetylpyridine,CC(=O)c1cccnc1,12,13856009,http://www.alfa.com/en/GP100W.pgm?DSSTK=A14246,Alfa Aesar,2,12,13.5,1.5
7852,"N,N-dimethyl-3-nitroaniline",CN(C)c1cccc(c1)[N+](=O)[O-],59,21168823,http://www.alfa.com/en/GP100W.pgm?DSSTK=L00401,Alfa Aesar,2,59,60.5,1.5
5663,"5,6-dimethylbenzimidazole",Cc1cc2c(cc1C)nc[nH]2,204,655,http://www.alfa.com/en/GP100W.pgm?DSSTK=L07469,Alfa Aesar,3,204,205.5,1.5
16048,Palmitic acid,O=C(O)CCCCCCCCCCCCCCC,62.5,960,http://msds.chem.ox.ac.uk/,academic website,3,61,62.5,1.5
8746,acemetacin,COc3ccc2n(C(=O)c1ccc(Cl)cc1)c(C)c(CC(=O)OCC(O)=O)c2c3,150,1904,http://dx.doi.org/10.1021/ci020280x,Bergstrom C. A. S.; Norinder U.; Luthman K.; Artursson P. Molecular Descriptors Influencing Melting Point and Their Role in Classification of Solid Drugs. J. Chem. Inf. Comput. Sci.; (Article); 2003; 43(4); 1177-1192,3,150,151.5,1.5
5665,"5,7-dichloro-8-hydroxyquinoline",c1cc2c(cc(c(c2nc1)O)Cl)Cl,181,2621,http://www.alfa.com/en/GP100W.pgm?DSSTK=B23809,Alfa Aesar,3,179.5,181,1.5
16787,Ethacrynic acid,Clc1c(ccc(OCC(=O)O)c1Cl)C(=O)C(=C)CC,122.5,3163,http://www.drugbank.ca/drugs/DB00903,DrugBank,3,121,122.5,1.5
15024,"1-Ethyl-1H-pyrrole-2,5-dione",O=C1C=CC(=O)N1CC,44,4209,http://msds.chem.ox.ac.uk/,academic website,3,44,45.5,1.5
15863,Iodoacetic acid,ICC(=O)O,81,5050,http://msds.chem.ox.ac.uk/,academic website,3,81,82.5,1.5
8996,tolazamide,Cc1ccc(cc1)S(=O)(=O)NC(=O)NN2CCCCCC2,170,5302,http://dx.doi.org/10.1021/ci020280x,Bergstrom C. A. S.; Norinder U.; Luthman K.; Artursson P. Molecular Descriptors Influencing Melting Point and Their Role in Classification of Solid Drugs. J. Chem. Inf. Comput. Sci.; (Article); 2003; 43(4); 1177-1442,3,170,171.5,1.5
2196,2-bromoacetophenone,c1ccc(cc1)C(=O)CBr,50,6023,http://www.alfa.com/en/GP100W.pgm?DSSTK=A15576,Alfa Aesar,3,49,50.5,1.5
13589,1-ethynyl-1-cyclohexanol,C#CC1(O)CCCCC1,33,6277,http://www.amazon.com/dp/B003XEQTLE,Aldrich Chemical Company; Aldrich Catalog-Handbook of Fine Chemicals; Milwaukee; WI; 1984.,3,31.5,33,1.5
14674,p-bromobenzophenone,O=C(c1ccc(Br)cc1)c2ccccc2,82,6763,http://www.amazon.com/dp/B003XEQTLE,Aldrich Chemical Company; Aldrich Catalog-Handbook of Fine Chemicals; Milwaukee; WI; 1984.,3,81,82.5,1.5
14262,4-tert-butylbenzoic_acid,CC(C)(C)c1ccc(cc1)C(=O)O,165,7125,http://www.amazon.com/dp/B003XEQTLE,Aldrich Chemical Company; Aldrich Catalog-Handbook of Fine Chemicals; Milwaukee; WI; 1984.,3,164.5,166,1.5
6686,cyanoacetamide,C(C#N)C(=O)N,120,7610,http://www.alfa.com/en/GP100W.pgm?DSSTK=A12482,Alfa Aesar,3,120,121.5,1.5
15418,"4,5,6,7-Tetrachloro-2-benzofuran-1,3-dione",O=C1OC(=O)c2c1c(Cl)c(Cl)c(Cl)c2Cl,255.5,8023,http://msds.chem.ox.ac.uk/,academic website,3,254.5,256,1.5
7328,indole-3-butyric acid,c1ccc2c(c1)c(c[nH]2)CCCC(=O)O,123,8298,http://www.alfa.com/en/GP100W.pgm?DSSTK=A15260,Alfa Aesar,3,123,124.5,1.5
14562,p-chlorobenzophenone,O=C(c1ccc(Cl)cc1)c2ccccc2,76,8331,http://www.amazon.com/dp/B003XEQTLE,Aldrich Chemical Company; Aldrich Catalog-Handbook of Fine Chemicals; Milwaukee; WI; 1984.,3,76,77.5,1.5
1694,"2,6-diaminopyridine",c1cc(nc(c1)N)N,120,8528,http://www.alfa.com/en/GP100W.pgm?DSSTK=A12295,Alfa Aesar,3,120,121.5,1.5
15293,2-Methylfuran,Cc1ccco1,-89,10340,http://msds.chem.ox.ac.uk/,academic website,3,-89,-87.5,1.5
13807,"1,4-benzenedimethanol",OCc1ccc(CO)cc1,118,11022,http://www.amazon.com/dp/B003XEQTLE,Aldrich Chemical Company; Aldrich Catalog-Handbook of Fine Chemicals; Milwaukee; WI; 1984.,3,117.5,119,1.5
747,"1,1'-bi(2-naphthol)",c1ccc2c(c1)ccc(c2c3c4ccccc4ccc3O)O,217,11269,http://www.alfa.com/en/GP100W.pgm?DSSTK=A11182,Alfa Aesar,3,215.5,217,1.5
14533,p-tolyl_benzoate,O=C(Oc1ccc(C)cc1)c2ccccc2,70,11468,http://de.wikipedia.org/wiki/Beilsteins_Handbuch_der_Organischen_Chemie,Beilstein F. K.; Beilsteins Handbuch der Organischen Chemie. Springer; Berlin; 1972.,3,70,71.5,1.5
14721,"1,4-diiodobenzene",Ic1ccc(I)cc1,131,11708,http://www.amazon.com/dp/B003XEQTLE,Aldrich Chemical Company; Aldrich Catalog-Handbook of Fine Chemicals; Milwaukee; WI; 1984.,3,130,131.5,1.5
8908,thozalinone,CN(C)C1=NC(=O)C(O1)c2ccccc2,133,12082,http://dx.doi.org/10.1021/ci020280x,Bergstrom C. A. S.; Norinder U.; Luthman K.; Artursson P. Molecular Descriptors Influencing Melting Point and Their Role in Classification of Solid Drugs. J. Chem. Inf. Comput. Sci.; (Article); 2003; 43(4); 1177-1354,3,133,134.5,1.5
5566,4-picoline n-oxide,Cc1cc[n+](cc1)[O-],184,13257,http://www.alfa.com/en/GP100W.pgm?DSSTK=A17330,Alfa Aesar,3,184,185.5,1.5
13922,p-vinylbenzoic_acid,OC(=O)c1ccc(C=C)cc1,142,13476,http://www.amazon.com/dp/B003XEQTLE,Aldrich Chemical Company; Aldrich Catalog-Handbook of Fine Chemicals; Milwaukee; WI; 1984.,3,142,143.5,1.5
14394,"2,6-dichlorobenzamide",O=C(N)c1c(Cl)cccc1Cl,198,15359,http://www.amazon.com/dp/B003XEQTLE,Aldrich Chemical Company; Aldrich Catalog-Handbook of Fine Chemicals; Milwaukee; WI; 1984.,3,197.5,199,1.5
14294,4-acetoxybenzoic_acid,O=C(C)Oc1ccc(cc1)C(=O)O,194,15983,http://www.amazon.com/dp/B003XEQTLE,Aldrich Chemical Company; Aldrich Catalog-Handbook of Fine Chemicals; Milwaukee; WI; 1984.,3,192.5,194,1.5
15171,"2,4-Dimethoxyaniline",Nc1ccc(cc1OC)OC,33.5,16685,http://msds.chem.ox.ac.uk/,academic website,3,33.5,35,1.5
13983,phenoxyacetic_acid,O=C(O)COc1ccccc1,100,18107,http://www.amazon.com/dp/B003XEQTLE,Aldrich Chemical Company; Aldrich Catalog-Handbook of Fine Chemicals; Milwaukee; WI; 1984.,3,98.5,100,1.5
8824,flupirtine,CCOC(=O)Nc2ccc(NCc1ccc(F)cc1)nc2N,114,48119,http://dx.doi.org/10.1021/ci020280x,Bergstrom C. A. S.; Norinder U.; Luthman K.; Artursson P. Molecular Descriptors Influencing Melting Point and Their Role in Classification of Solid Drugs. J. Chem. Inf. Comput. Sci.; (Article); 2003; 43(4); 1177-1270,3,114,115.5,1.5
13687,4-cyanobenzaldehyde,O=Cc1ccc(C#N)cc1,102,59433,http://www.amazon.com/dp/B003XEQTLE,Aldrich Chemical Company; Aldrich Catalog-Handbook of Fine Chemicals; Milwaukee; WI; 1984.,3,100.5,102,1.5
13759,2-hydroxyacetophenone,O=C(CO)c1ccccc1,6,61765,http://www.amazon.com/dp/B003XEQTLE,Aldrich Chemical Company; Aldrich Catalog-Handbook of Fine Chemicals; Milwaukee; WI; 1984.,3,4.5,6,1.5
13995,3-nitrobenzyl_alcohol,O=[N+]([O-])c1cc(CO)ccc1,32,62479,http://www.amazon.com/dp/B003XEQTLE,Aldrich Chemical Company; Aldrich Catalog-Handbook of Fine Chemicals; Milwaukee; WI; 1984.,3,30.5,32,1.5
27869,boc-glycine,O=C(OC(C)(C)C)NCC(=O)O,88.5,70660,http://www.alfa.com/en/GP100W.pgm?DSSTK=A11579&rnd=267109864,Alfa Aesar,3,87.5,89,1.5
15434,"4-Amino-2,6-dichlorophenol",Clc1cc(N)cc(Cl)c1O,168.5,72291,http://msds.chem.ox.ac.uk/,academic website,3,167,168.5,1.5
14239,4-cyclohexylaniline,Nc1ccc(cc1)C2CCCCC2,53,72918,http://www.amazon.com/dp/B003XEQTLE,Aldrich Chemical Company; Aldrich Catalog-Handbook of Fine Chemicals; Milwaukee; WI; 1984.,3,53,54.5,1.5
14801,"(2R,3S)-Butane-2,3-diol",C[C@@H](O)[C@H](C)O,33,190756,http://msds.chem.ox.ac.uk/,academic website,3,33,34.5,1.5
13587,"trans-1,4-dichloro-2-butene",ClCC=CCCl,2,557415,http://www.amazon.com/dp/B003XEQTLE,Aldrich Chemical Company; Aldrich Catalog-Handbook of Fine Chemicals; Milwaukee; WI; 1984.,3,2,3.5,1.5
13969,p-methoxybenzamide,COc1ccc(cc1)C(N)=O,165,10256859,http://www.amazon.com/dp/B003XEQTLE,Aldrich Chemical Company; Aldrich Catalog-Handbook of Fine Chemicals; Milwaukee; WI; 1984.,3,165,166.5,1.5
15369,3-Anilinophenol,Oc2cccc(Nc1ccccc1)c2,81.5,21106124,http://msds.chem.ox.ac.uk/,academic website,3,80,81.5,1.5
15441,4-Aminophenol,Nc1ccc(O)cc1,189,392,http://msds.chem.ox.ac.uk/,academic website,4,187.5,189,1.5
4399,"4,4'-diaminodiphenyl sulfone",c1cc(ccc1N)S(=O)(=O)c2ccc(cc2)N,177,2849,http://www.alfa.com/en/GP100W.pgm?DSSTK=A18976,Alfa Aesar,4,175.5,177,1.5
14873,"1,1',1'',1'''-[Disulfanediylbis(carbonothioylnitrilo)]tetraethane",CCN(CC)C(=S)SSC(=S)N(CC)CC,70,3005,http://msds.chem.ox.ac.uk/,academic website,4,70,71.5,1.5
15031,1H-Benzimidazole,c1cccc2ncnc12,171,5593,http://msds.chem.ox.ac.uk/,academic website,4,170.5,172,1.5
15906,Methyl acrylate,C=CC(=O)OC,-75,7022,http://msds.chem.ox.ac.uk/,academic website,4,-76.5,-75,1.5
6703,cyclohexanecarboxylic acid,C1CCC(CC1)C(=O)O,31,7135,http://www.alfa.com/en/GP100W.pgm?DSSTK=A14693,Alfa Aesar,4,30,31.5,1.5
13806,m-nitroaniline,O=[N+]([O-])c1cccc(N)c1,114,7145,http://www.amazon.com/dp/B003XEQTLE,Aldrich Chemical Company; Aldrich Catalog-Handbook of Fine Chemicals; Milwaukee; WI; 1984.,4,112.5,114,1.5
15849,"Hexane-2,5-dione",CC(=O)CCC(C)=O,-7,7744,http://msds.chem.ox.ac.uk/,academic website,4,-7,-5.5,1.5
15483,"4-Methylbenzene-1,2-diamine",Cc1cc(N)c(N)cc1,89.5,9908,http://msds.chem.ox.ac.uk/,academic website,4,88,89.5,1.5
15845,Hexan-2-one,CC(=O)CCCC,-57,11095,http://msds.chem.ox.ac.uk/,academic website,4,-57,-55.5,1.5
15576,Adenosine,Nc3ncnc2c3ncn2[C@@H]1O[C@H](CO)[C@@H](O)[C@H]1O,234,54923,http://msds.chem.ox.ac.uk/,academic website,4,234,235.5,1.5
16166,Trichloroacetic acid,ClC(Cl)(Cl)C(=O)O,57,10772050,http://msds.chem.ox.ac.uk/,academic website,4,56,57.5,1.5
15661,Chloroacetic acid,ClCC(=O)O,63,10772140,http://msds.chem.ox.ac.uk/,academic website,4,61.5,63,1.5
15599,"Benzene-1,2-diamine",Nc1ccccc1N,101.5,13837582,http://msds.chem.ox.ac.uk/,academic website,4,101,102.5,1.5
15044,1-Iodo-3-nitrobenzene,Ic1cccc(c1)[N+](=O)[O-],37,21106127,http://msds.chem.ox.ac.uk/,academic website,4,37,38.5,1.5
15487,4-Methylbenzonitrile,N#Cc1ccc(C)cc1,29,21106167,http://msds.chem.ox.ac.uk/,academic website,4,28,29.5,1.5
15478,4-Methoxybenzoic acid,COc1ccc(cc1)C(=O)O,183.5,10181338,http://msds.chem.ox.ac.uk/,academic website,6,183.5,185,1.5
27994,DCC,N(=C=N\C1CCCCC1)\C2CCCCC2,34.5,10408,http://www.alfa.com/en/GP100W.pgm?DSSTK=A10973&rnd=155635834,Alfa Aesar,7,34.5,36,1.5
2790,2-mercapto-1-methylimidazole,Cn1ccnc1S,146,1131173,http://www.alfa.com/en/GP100W.pgm?DSSTK=A13094,Alfa Aesar,8,145.5,147,1.5
8786,carbamazepine,NC(=O)N2c1ccccc1C=Cc3ccccc23,190,2457,http://dx.doi.org/10.1021/ci020280x,Bergstrom C. A. S.; Norinder U.; Luthman K.; Artursson P. Molecular Descriptors Influencing Melting Point and Their Role in Classification of Solid Drugs. J. Chem. Inf. Comput. Sci.; (Article); 2003; 43(4); 1177-1232,9,190,191.5,1.5
15077,1-Phenylethanone,CC(=O)c1ccccc1,19,7132,http://msds.chem.ox.ac.uk/,academic website,9,19,20.5,1.5
15673,Cyanamide,N#CN,44,9480,http://msds.chem.ox.ac.uk/,academic website,3,44,45.56,1.56
27737,Acenaphthene,C1CC2=CC=CC3=C2C1=CC=C3,95,6478,http://dx.doi.org/10.1016/j.chemosphere.2013.10.095,Abraham M.H. and Acree Jr. W.E. The solubility of liquid and solid compounds in dry octan-1-ol. Chemosphere (2013),7,93.4,95,1.6
15458,4-Ethoxyaniline,CCOc1ccc(N)cc1,3,21106155,http://msds.chem.ox.ac.uk/,academic website,4,2.4,4,1.6
4230,4-(2-aminoethyl)morpholine,C1COCCN1CCN,24,361265,http://www.alfa.com/en/GP100W.pgm?DSSTK=B21365,Alfa Aesar,2,24,25.6,1.6
27478,"1,3,5-Trichlorobenzene",C1=C(C=C(C=C1Cl)Cl)Cl,64,7662,http://dx.doi.org/10.1016/j.chemosphere.2013.10.095,Abraham M.H. and Acree Jr. W.E. The solubility of liquid and solid compounds in dry octan-1-ol. Chemosphere (2013),7,63.4,65,1.6
13738,isophthalaldehyde,O=Cc1cccc(C=O)c1,89,32002,http://www.amazon.com/dp/B003XEQTLE,Aldrich Chemical Company; Aldrich Catalog-Handbook of Fine Chemicals; Milwaukee; WI; 1984.,4,87.85,89.5,1.65
15559,9-Methyl-9H-carbazole,Cn3c1ccccc1c2ccccc23,91,14413,http://msds.chem.ox.ac.uk/,academic website,2,89.34,91,1.66
16817,Aprobarbital,O=C1NC(=O)NC(=O)C1(CC=C)C(C)C,141,6221,http://www.drugbank.ca/drugs/DB01352,DrugBank,3,141,142.7,1.7
27710,"4,4'-DDT",C1=CC(=CC=C1C(C2=CC=C(C=C2)Cl)C(Cl)(Cl)Cl)Cl,110,2928,http://dx.doi.org/10.1016/j.chemosphere.2013.10.095,Abraham M.H. and Acree Jr. W.E. The solubility of liquid and solid compounds in dry octan-1-ol. Chemosphere (2013),11,108.3,110,1.7
13797,trans-decahydronaphthalene,C1CC[C@H]2CCCC[C@@H]2C1,-32,10265270,http://www.amazon.com/dp/B003XEQTLE,Aldrich Chemical Company; Aldrich Catalog-Handbook of Fine Chemicals; Milwaukee; WI; 1984.,2,-32,-30.3,1.7