key,name,smiles,mpC,csid,link,source,count,min,max,range
8181,octafluorotoluene,c1(c(c(c(c(c1F)F)F)F)F)C(F)(F)F,-66,9522,http://www.alfa.com/en/GP100W.pgm?DSSTK=A11453,Alfa Aesar,2,-66,-65.6,0.4
7168,ethyl chloroformate,CCOC(=O)Cl,-81,10465,http://www.alfa.com/en/GP100W.pgm?DSSTK=L06311,Alfa Aesar,2,-81,-80.6,0.4
13428,"2,3,4-trimethyl-2-pentene",C/C(C)=C(/C)C(C)C,-113,10796,http://www.amazon.com/dp/B002IYRJWI,American Petroleum Institute. Research Project 44; Selected Values of Properties of Hydrocarbons and Related Compounds. Texas A & M University; College Station; TX; 1973.,2,-113.4,-113,0.4
4066,"3-methyl-1,2-butadiene",CC(=C=C)C,-114,11222,http://www.alfa.com/en/GP100W.pgm?DSSTK=L10159,Alfa Aesar,2,-114,-113.6,0.4
13331,3-ethylpentane,CCC(CC)CC,-119,11551,http://www.amazon.com/dp/B002IYRJWI,American Petroleum Institute. Research Project 44; Selected Values of Properties of Hydrocarbons and Related Compounds. Texas A & M University; College Station; TX; 1973.,2,-119,-118.6,0.4
6947,di-n-propyl disulfide,CCCSSCCC,-86,11871,http://www.alfa.com/en/GP100W.pgm?DSSTK=L09881,Alfa Aesar,2,-86,-85.6,0.4
16018,Nonadecanoic acid,O=C(O)CCCCCCCCCCCCCCCCCC,69,12071,http://msds.chem.ox.ac.uk/,academic website,2,69,69.4,0.4
1124,"2,2-dichloroacetamide",C(C(=O)N)(Cl)Cl,99,12173,http://www.alfa.com/en/GP100W.pgm?DSSTK=L00315,Alfa Aesar,2,99,99.4,0.4
13295,"4,4-dimethyl-1-pentene",CC(C)(C)CC=C,-137,12444,http://www.amazon.com/dp/B002IYRJWI,American Petroleum Institute. Research Project 44; Selected Values of Properties of Hydrocarbons and Related Compounds. Texas A & M University; College Station; TX; 1973.,2,-137,-136.6,0.4
13839,2-methylnonane,CC(C)CCCCCCC,-75,12807,http://www.amazon.com/dp/B002IYRJWI,American Petroleum Institute. Research Project 44; Selected Values of Properties of Hydrocarbons and Related Compounds. Texas A & M University; College Station; TX; 1973.,2,-75,-74.6,0.4
13620,"2,4-dimethyl-3-ethylpentane",CC(C)C(CC)C(C)C,-122,13421,http://www.amazon.com/dp/B002IYRJWI,American Petroleum Institute. Research Project 44; Selected Values of Properties of Hydrocarbons and Related Compounds. Texas A & M University; College Station; TX; 1973.,2,-122.4,-122,0.4
13293,ethylcyclopentane,CCC1CCCC1,-138,14686,http://www.amazon.com/dp/B002IYRJWI,American Petroleum Institute. Research Project 44; Selected Values of Properties of Hydrocarbons and Related Compounds. Texas A & M University; College Station; TX; 1973.,2,-138.4,-138,0.4
13999,o-chlorocumene,CC(C)c1ccccc1Cl,-74,15532,http://www.questia.com/library/book/physical_properties_of_chemical_compounds_by_robert_rickert_dreisbach.jsp,Dreisbach R. R. Physical Properties of Chemical Compounds; Vol. I; American Chemical Society; Washington; 1955.,2,-74.4,-74,0.4
13627,3-methyloctane,CC(CC)CCCCC,-108,15801,http://www.amazon.com/dp/B002IYRJWI,American Petroleum Institute. Research Project 44; Selected Values of Properties of Hydrocarbons and Related Compounds. Texas A & M University; College Station; TX; 1973.,2,-108,-107.6,0.4
13429,isopropylcyclopentane,CC(C)C1CCCC1,-111,18604,http://www.amazon.com/dp/B002IYRJWI,American Petroleum Institute. Research Project 44; Selected Values of Properties of Hydrocarbons and Related Compounds. Texas A & M University; College Station; TX; 1973.,2,-111.4,-111,0.4
13423,"1,1,3-trimethylcyclopentane",CC1CCC(C)(C)C1,-142,19413,http://www.amazon.com/dp/B002IYRJWI,American Petroleum Institute. Research Project 44; Selected Values of Properties of Hydrocarbons and Related Compounds. Texas A & M University; College Station; TX; 1973.,2,-142.4,-142,0.4
13415,"4,4-dimethylcyclohexene",CC1(C)CC=CCC1,-74,24634,http://www.amazon.com/dp/B002IYRJWI,American Petroleum Institute. Research Project 44; Selected Values of Properties of Hydrocarbons and Related Compounds. Texas A & M University; College Station; TX; 1973.,2,-74.4,-74,0.4
13626,"2,4,4-trimethylhexane",CC(C)CC(C)(C)CC,-113,26066,http://www.amazon.com/dp/B002IYRJWI,American Petroleum Institute. Research Project 44; Selected Values of Properties of Hydrocarbons and Related Compounds. Texas A & M University; College Station; TX; 1973.,2,-113.4,-113,0.4
13134,"1,trans-3-pentadiene",C=CC=CC,-87,56020,http://www.amazon.com/dp/B002IYRJWI,American Petroleum Institute. Research Project 44; Selected Values of Properties of Hydrocarbons and Related Compounds. Texas A & M University; College Station; TX; 1973.,2,-87.4,-87,0.4
8605,tribromofluoromethane,C(F)(Br)(Br)Br,-74,61026,http://www.alfa.com/en/GP100W.pgm?DSSTK=A18124,Alfa Aesar,2,-74,-73.6,0.4
13284,"1,2-dimethylcyclopentene",CC=1CCCC=1C,-90,63026,http://www.amazon.com/dp/B002IYRJWI,American Petroleum Institute. Research Project 44; Selected Values of Properties of Hydrocarbons and Related Compounds. Texas A & M University; College Station; TX; 1973.,2,-90.4,-90,0.4
17145,fludioxonil,N#Cc3cncc3c1cccc2OC(F)(F)Oc12,199.4,77916,http://dx.doi.org/10.1021/ci700307p,Hughes LD; Palmer DS; Nigsch F and Mitchell JBO. 2008 Why are some properties more difficult to predict than others? A study of QSPR models of solubility; melting point and LogP. J. Chem. Inf. Model. 2008. 48 (1). pp 220?292,2,199.4,199.8,0.4
13706,2-bromo-1-butene,BrC(=C)CC,-133,81237,http://www.questia.com/library/book/physical_properties_of_chemical_compounds_by_robert_rickert_dreisbach.jsp,Dreisbach R. R. Physical Properties of Chemical Compounds; Vol. III; American Chemical Society; Washington; 1961.,2,-133.4,-133,0.4
13191,4-methyl-1-pentyne,CC(C)CC#C,-105,122546,http://www.amazon.com/dp/B002IYRJWI,American Petroleum Institute. Research Project 44; Selected Values of Properties of Hydrocarbons and Related Compounds. Texas A & M University; College Station; TX; 1973.,2,-105,-104.6,0.4
13291,2-methyl-trans-3-hexene,CCC=CC(C)C,-142,4509420,http://www.amazon.com/dp/B002IYRJWI,American Petroleum Institute. Research Project 44; Selected Values of Properties of Hydrocarbons and Related Compounds. Texas A & M University; College Station; TX; 1973.,2,-142,-141.6,0.4
6780,diallylamine,C=CCNCC=C,-88,21106561,http://www.alfa.com/en/GP100W.pgm?DSSTK=A18950,Alfa Aesar,2,-88.4,-88,0.4
16083,Propane,CCC,-188,6094,http://msds.chem.ox.ac.uk/,academic website,3,-188,-187.6,0.4
279,1-bromobutane,CCCCBr,-112,7711,http://www.alfa.com/en/GP100W.pgm?DSSTK=A10696,Alfa Aesar,3,-112.4,-112,0.4
13107,cyclobutane,C1CCC1,-91,8894,http://www.amazon.com/dp/B002IYRJWI,American Petroleum Institute. Research Project 44; Selected Values of Properties of Hydrocarbons and Related Compounds. Texas A & M University; College Station; TX; 1973.,3,-91,-90.6,0.4
15860,Icosanoic acid,O=C(O)CCCCCCCCCCCCCCCCCCC,75,10035,http://msds.chem.ox.ac.uk/,academic website,3,75,75.4,0.4
141,1-iodopentane,CCCCCI,-86,11830,http://www.alfa.com/en/GP100W.pgm?DSSTK=B20781,Alfa Aesar,3,-86,-85.6,0.4
13302,2-methyl-2-hexene,C/C(C)=CCCC,-130,16689,http://www.amazon.com/dp/B002IYRJWI,American Petroleum Institute. Research Project 44; Selected Values of Properties of Hydrocarbons and Related Compounds. Texas A & M University; College Station; TX; 1973.,3,-130.4,-130,0.4
2684,2-hexyne,CCCC#CC,-90,31016,http://www.alfa.com/en/GP100W.pgm?DSSTK=B22405,Alfa Aesar,3,-90,-89.6,0.4
13294,trans-3-heptene,CCCC=CCC,-137,4512648,http://www.amazon.com/dp/B002IYRJWI,American Petroleum Institute. Research Project 44; Selected Values of Properties of Hydrocarbons and Related Compounds. Texas A & M University; College Station; TX; 1973.,3,-137,-136.6,0.4
16649,Clozapine,CN1CCN(CC1)C2=Nc4cc(Cl)ccc4Nc3ccccc23,183.5,10442628,http://www.drugbank.ca/drugs/DB00363,DrugBank,3,183.5,183.9,0.4
672,"1,2-dibromobutane",CCC(CBr)Br,-65,21171408,http://www.alfa.com/en/GP100W.pgm?DSSTK=B20356,Alfa Aesar,3,-65.4,-65,0.4
6349,allyl bromide,C=CCBr,-119,7553,http://www.alfa.com/en/GP100W.pgm?DSSTK=A11766,Alfa Aesar,4,-119.4,-119,0.4
15797,Ethyl acetate,CC(=O)OCC,-84,8525,http://msds.chem.ox.ac.uk/,academic website,4,-84,-83.6,0.4
15274,2-Methoxy-2-methylpropane,CC(C)(C)OC,-109,14672,http://msds.chem.ox.ac.uk/,academic website,4,-109,-108.6,0.4
15631,Bromoethane,BrCC,-119,6092,http://msds.chem.ox.ac.uk/,academic website,5,-119,-118.6,0.4
13103,ethanol,CCO,-114,682,http://www.amazon.com/dp/B002IYRJWI,American Petroleum Institute. Research Project 44; Selected Values of Properties of Hydrocarbons and Related Compounds. Texas A & M University; College Station; TX; 1973.,8,-114.4,-114,0.4
16090,Propionic acid,CCC(=O)O,-20.8,1005,http://msds.chem.ox.ac.uk/,academic website,5,-21.1,-20.7,0.4
13139,cis-2-pentene,CC=C/CC,-151,4483638,http://www.amazon.com/dp/B002IYRJWI,American Petroleum Institute. Research Project 44; Selected Values of Properties of Hydrocarbons and Related Compounds. Texas A & M University; College Station; TX; 1973.,2,-151.41,-151,0.41
27979,cyclopropane,C1CC1,-127.15,6111,http://webbook.nist.gov/cgi/cbook.cgi?ID=C75194&Units=SI&Mask=7,NIST Web Book,3,-127.56,-127.15,0.41
15831,Heptane,CCCCCCC,-91,8560,http://msds.chem.ox.ac.uk/,academic website,5,-91,-90.59,0.41
14316,4-methyldiphenylmethane,Cc2ccc(Cc1ccccc1)cc2,5,62501,http://www.amazon.com/dp/B002IYRJWI,American Petroleum Institute. Research Project 44; Selected Values of Properties of Hydrocarbons and Related Compounds. Texas A & M University; College Station; TX; 1973.,3,4.58,5,0.42
16143,Tetrahydrofuran,C1CCCO1,-108,7737,http://msds.chem.ox.ac.uk/,academic website,4,-108.44,-108,0.44
21,1-octene,CCCCCCC=C,-102,7833,http://www.alfa.com/en/GP100W.pgm?DSSTK=A11146,Alfa Aesar,4,-102.15,-101.7,0.45
13277,1-methylcyclohexene,CC=1CCCCC=1,-120,11086,http://www.amazon.com/dp/B002IYRJWI,American Petroleum Institute. Research Project 44; Selected Values of Properties of Hydrocarbons and Related Compounds. Texas A & M University; College Station; TX; 1973.,3,-120.45,-120,0.45
15834,Hex-1-ene,C=CCCCC,-140,11109,http://msds.chem.ox.ac.uk/,academic website,5,-140.15,-139.7,0.45
15914,Methyl methacrylate,C=C(C)C(=O)OC,-48,6406,http://msds.chem.ox.ac.uk/,academic website,4,-48,-47.55,0.45
7389,isoquinoline,c1ccc2cnccc2c1,26,8098,http://www.alfa.com/en/GP100W.pgm?DSSTK=B21279,Alfa Aesar,2,26,26.47,0.47
15896,Methanol,CO,-98,864,http://msds.chem.ox.ac.uk/,academic website,9,-98,-97.53,0.47
670,"1,2-dibromopropane",CC(CBr)Br,-55,6305,http://www.alfa.com/en/GP100W.pgm?DSSTK=B22994,Alfa Aesar,3,-55.49,-55,0.49
8280,"phloroglucinol, anhydrous",c1c(cc(cc1O)O)O,218,352,http://www.alfa.com/en/GP100W.pgm?DSSTK=B25502,Alfa Aesar,2,218,218.5,0.5
15220,2-Amino-1-phenylethanol,OC(CN)c1ccccc1,57,975,http://msds.chem.ox.ac.uk/,academic website,2,56.5,57,0.5
3046,2-picolinic acid,c1ccnc(c1)C(=O)O,137,993,http://www.alfa.com/en/GP100W.pgm?DSSTK=A14749,Alfa Aesar,2,136.5,137,0.5
15931,"N-(3-Aminopropyl)butane-1,4-diamine",NCCCNCCCCN,23.5,1071,http://msds.chem.ox.ac.uk/,academic website,2,23.5,24,0.5
4609,4-aminopyridine,c1cnccc1N,159,1664,http://www.alfa.com/en/GP100W.pgm?DSSTK=A12405,Alfa Aesar,2,158.5,159,0.5
7309,homovanillic acid,COc1cc(ccc1O)CC(=O)O,143,1675,http://www.alfa.com/en/GP100W.pgm?DSSTK=A12441,Alfa Aesar,2,143,143.5,0.5
6049,6-acetamidohexanoic acid,CC(=O)NCCCCCC(=O)O,104,1928,http://www.alfa.com/en/GP100W.pgm?DSSTK=B23623,Alfa Aesar,2,104,104.5,0.5
15527,"6,6,9-Trimethyl-3-pentyl-6H-benzo[c]chromen-1-ol",Cc2cc3c1c(cc(cc1O)CCCCC)OC(C)(C)c3cc2,76.5,2447,http://msds.chem.ox.ac.uk/,academic website,2,76.5,77,0.5
17119,carbofuran,CNC(=O)Oc1cccc2CC(C)(C)Oc12,151.5,2468,http://dx.doi.org/10.1021/ci700307p,Hughes LD; Palmer DS; Nigsch F and Mitchell JBO. 2008 Why are some properties more difficult to predict than others? A study of QSPR models of solubility; melting point and LogP. J. Chem. Inf. Model. 2008. 48 (1). pp 220?266,2,151,151.5,0.5
418,"1,8-cineole",CC1(C2CCC(O1)(CC2)C)C,1,2656,http://www.alfa.com/en/GP100W.pgm?DSSTK=A12269,Alfa Aesar,2,1,1.5,0.5
16035,"O,O-Dimethyl S-[2-(methylamino)-2-oxoethyl] phosphorodithioate",COP(=S)(OC)SCC(=O)NC,51.5,2973,http://msds.chem.ox.ac.uk/,academic website,2,51.5,52,0.5
4663,4-biphenylacetic acid,c1ccc(cc1)c2ccc(cc2)CC(=O)O,161,3215,http://www.alfa.com/en/GP100W.pgm?DSSTK=A11749,Alfa Aesar,2,160.5,161,0.5
16033,"O,O-Dimethyl O-[3-methyl-4-(methylsulfanyl)phenyl] phosphorothioate",Cc1cc(ccc1SC)OP(=S)(OC)OC,7,3229,http://msds.chem.ox.ac.uk/,academic website,2,7,7.5,0.5
7276,guaiazulene,Cc1ccc(cc-2c(ccc12)C)C(C)C,32,3395,http://www.alfa.com/en/GP100W.pgm?DSSTK=A17690,Alfa Aesar,2,31.5,32,0.5
7331,indole-3-methanol,c1ccc2c(c1)c(c[nH]2)CO,98,3581,http://www.alfa.com/en/GP100W.pgm?DSSTK=L15762,Alfa Aesar,2,97.5,98,0.5
7332,indole-3-propionic acid,c1ccc2c(c1)c(c[nH]2)CCC(=O)O,134,3613,http://www.alfa.com/en/GP100W.pgm?DSSTK=L04877,Alfa Aesar,2,134,134.5,0.5
16032,"O,O-Dimethyl O-(4-nitrophenyl) phosphorothioate",S=P(Oc1ccc(cc1)[N+]([O-])=O)(OC)OC,36,3987,http://msds.chem.ox.ac.uk/,academic website,2,35.5,36,0.5
8006,N-bromoacetamide,CC(=O)NBr,104,4200,http://www.alfa.com/en/GP100W.pgm?DSSTK=L02953,Alfa Aesar,2,103.5,104,0.5
8216,papaverine,COc1ccc(cc1OC)Cc2c3cc(c(cc3ccn2)OC)OC,147,4518,http://www.alfa.com/en/GP100W.pgm?DSSTK=L04152,Alfa Aesar,2,147,147.5,0.5
16641,Phenindione,O=C2c1ccccc1C(=O)C2c3ccccc3,149.5,4596,http://www.drugbank.ca/drugs/DB00498,DrugBank,2,149.5,150,0.5
16640,Terfenadine,CC(C)(C)c1ccc(cc1)C(O)CCCN2CCC(CC2)C(O)(c3ccccc3)c4ccccc4,147.5,5212,http://www.drugbank.ca/drugs/DB00342,DrugBank,2,147,147.5,0.5
16289,Zonisamide,NS(=O)(=O)Cc2noc1ccccc12,162,5532,http://www.drugbank.ca/drugs/DB00909,DrugBank,2,161.5,162,0.5
16886,Phentolamine,Cc1ccc(cc1)N(CC2=NCCN2)c3cc(O)ccc3,174.5,5571,http://www.drugbank.ca/drugs/DB00692,DrugBank,2,174.5,175,0.5
17285,cyclobarbital,O=C1NC(=O)NC(=O)C1(CC)C2=CCCCC2,172.5,5632,http://dx.doi.org/10.1021/ci700307p,Hughes LD; Palmer DS; Nigsch F and Mitchell JBO. 2008 Why are some properties more difficult to predict than others? A study of QSPR models of solubility; melting point and LogP. J. Chem. Inf. Model. 2008. 48 (1). pp 220?432,2,172.5,173,0.5
3495,"3,5-dimethyl-1h-pyrazole",Cc1cc(n[nH]1)C,107,5975,http://www.alfa.com/en/GP100W.pgm?DSSTK=A10157,Alfa Aesar,2,107,107.5,0.5
14869,"1,1'-(2,2-Dichloroethane-1,1-diyl)bis(4-chlorobenzene)",Clc1ccc(cc1)C(C(Cl)Cl)c2ccc(Cl)cc2,109,6057,http://msds.chem.ox.ac.uk/,academic website,2,109,109.5,0.5
8085,nitroethane,CC[N+](=O)[O-],-89,6338,http://www.alfa.com/en/GP100W.pgm?DSSTK=A10855,Alfa Aesar,2,-89.5,-89,0.5
21131,terpin,CC1(O)CCC(CC1)C(C)(C)O,158,6399,http://www.srcinc.com/what-we-do/product.aspx?id=133,PHYSPROP,2,158,158.5,0.5
14996,"1-Amino-2-methyl-9,10-anthraquinone",O=C3c1ccccc1C(=O)c2c3ccc(C)c2N,205,6447,http://msds.chem.ox.ac.uk/,academic website,2,205,205.5,0.5
4120,3-methylsalicylic acid,Cc1cccc(c1O)C(=O)O,165,6482,http://www.alfa.com/en/GP100W.pgm?DSSTK=L15825,Alfa Aesar,2,165,165.5,0.5
1246,"2,3-dichloro-5,6-dicyanobenzoquinone",C(#N)C1=C(C(=O)C(=C(C1=O)Cl)Cl)C#N,215,6517,http://www.alfa.com/en/GP100W.pgm?DSSTK=A11879,Alfa Aesar,2,214.5,215,0.5
8405,salicylanilide,c1ccc(cc1)NC(=O)c2ccccc2O,137,6610,http://www.alfa.com/en/GP100W.pgm?DSSTK=A10335,Alfa Aesar,2,136.5,137,0.5
14933,"1,3,5-Trichloro-2-methoxybenzene",COc1c(Cl)cc(Cl)cc1Cl,61,6620,http://msds.chem.ox.ac.uk/,academic website,2,61,61.5,0.5
1886,2-acetylthiophene,CC(=O)c1cccs1,10,6654,http://www.alfa.com/en/GP100W.pgm?DSSTK=A13062,Alfa Aesar,2,10,10.5,0.5
15163,"2,4,6-Trinitrophenol",O=[N+]([O-])c1cc(cc([N+]([O-])=O)c1O)[N+]([O-])=O,122,6688,http://msds.chem.ox.ac.uk/,academic website,2,122,122.5,0.5
6451,benzoguanamine,c1ccc(cc1)c2nc(nc(n2)N)N,227,6797,http://www.alfa.com/en/GP100W.pgm?DSSTK=B20157,Alfa Aesar,2,226.5,227,0.5
6167,6-methylcoumarin,Cc1ccc2c(c1)ccc(=O)o2,76,6825,http://www.alfa.com/en/GP100W.pgm?DSSTK=A19382,Alfa Aesar,2,76,76.5,0.5
6453,benzoic anhydride,c1ccc(cc1)C(=O)OC(=O)c2ccccc2,42,6899,http://www.alfa.com/en/GP100W.pgm?DSSTK=A14269,Alfa Aesar,2,42,42.5,0.5
15995,N-Hydroxybutan-2-imine,CC(CC)=NO,-29.5,7020,http://msds.chem.ox.ac.uk/,academic website,2,-30,-29.5,0.5
3179,3-(trifluoromethyl)aniline,c1cc(cc(c1)N)C(F)(F)F,6,7097,http://www.alfa.com/en/GP100W.pgm?DSSTK=A15910,Alfa Aesar,2,5.5,6,0.5
7374,isophthaloyl dichloride,c1cc(cc(c1)C(=O)Cl)C(=O)Cl,44,7171,http://www.alfa.com/en/GP100W.pgm?DSSTK=A15904,Alfa Aesar,2,43.5,44,0.5
4200,3-pyridinemethanol,c1cc(cnc1)CO,-7,7229,http://www.alfa.com/en/GP100W.pgm?DSSTK=A10381,Alfa Aesar,2,-7,-6.5,0.5
15420,"4,6-Dichloro-N-(2-chlorophenyl)-1,3,5-triazin-2-amine",Clc2nc(Nc1ccccc1Cl)nc(Cl)n2,159.5,7260,http://msds.chem.ox.ac.uk/,academic website,2,159.5,160,0.5
6331,acrylonitrile,C=CC#N,-84,7567,http://www.alfa.com/en/GP100W.pgm?DSSTK=A13058,Alfa Aesar,2,-84,-83.5,0.5
8156,N-tert-butylacrylamide,CC(C)(C)NC(=O)C=C,129,7589,http://www.alfa.com/en/GP100W.pgm?DSSTK=B20394,Alfa Aesar,2,128.5,129,0.5
1812,"2,6-dimethyl-4-heptanone",CC(C)CC(=O)CC(C)C,-42,7670,http://www.alfa.com/en/GP100W.pgm?DSSTK=L16015,Alfa Aesar,2,-42,-41.5,0.5
6578,bromocyclohexane,C1CCC(CC1)Br,-57,7672,http://www.alfa.com/en/GP100W.pgm?DSSTK=31031,Alfa Aesar,2,-57,-56.5,0.5
4021,3-hydroxypyridine,c1cc(cnc1)O,127,7683,http://www.alfa.com/en/GP100W.pgm?DSSTK=A13910,Alfa Aesar,2,127,127.5,0.5
2494,2-chloropyridine,c1ccnc(c1)Cl,-46,7689,http://www.alfa.com/en/GP100W.pgm?DSSTK=A14866,Alfa Aesar,2,-46.5,-46,0.5
13481,isoamyl_formate,CC(C)CCOC=O,-93,7761,http://de.wikipedia.org/wiki/Beilsteins_Handbuch_der_Organischen_Chemie,Beilstein F. K.; Beilsteins Handbuch der Organischen Chemie. Springer; Berlin; 1972.,2,-93.5,-93,0.5
6837,diethyl disulfide,CCSSCC,-102,7786,http://www.alfa.com/en/GP100W.pgm?DSSTK=L10065,Alfa Aesar,2,-102,-101.5,0.5
695,"1,2-bis(2-chloroethoxy)ethane",C(COCCCl)OCCCl,-32,7879,http://www.alfa.com/en/GP100W.pgm?DSSTK=B22884,Alfa Aesar,2,-32,-31.5,0.5
7900,N-acetyl-N'-phenylhydrazine,CC(=O)NNc1ccccc1,130,7951,http://www.alfa.com/en/GP100W.pgm?DSSTK=A14446,Alfa Aesar,2,129.5,130,0.5
15411,"4,4'-(1,1-Dioxido-3H-2,1-benzoxathiole-3,3-diyl)bis(2-bromo-6-methylphenol)",Cc1cc(cc(Br)c1O)C3(OS(=O)(=O)c2ccccc23)c4cc(C)c(O)c(Br)c4,241,7974,http://msds.chem.ox.ac.uk/,academic website,2,241,241.5,0.5
1112,"2,2'-biquinoline",c1ccc2c(c1)ccc(n2)c3ccc4ccccc4n3,195,8105,http://www.alfa.com/en/GP100W.pgm?DSSTK=A10907,Alfa Aesar,2,194.5,195,0.5
2069,2-benzyl-4-chlorophenol,c1ccc(cc1)Cc2cc(ccc2O)Cl,48,8118,http://www.alfa.com/en/GP100W.pgm?DSSTK=B20112,Alfa Aesar,2,48,48.5,0.5
28094,ethyl p-hydroxybenzoate,O=C(OCC)c1ccc(O)cc1,116,8127,http://www.aapspharmscitech.org/view.asp?art=pt070126,Sepassi K; Yalkowsky SH; AAPS PharmSciTech; 7(1); E1-E8 (2006),2,115.5,116,0.5
4923,4-chloro-3-nitrobenzotrifluoride,c1cc(c(cc1C(F)(F)F)[N+](=O)[O-])Cl,-3,8151,http://www.alfa.com/en/GP100W.pgm?DSSTK=A11488,Alfa Aesar,2,-3,-2.5,0.5
3884,3-ethoxy-4-hydroxybenzaldehyde,CCOc1cc(ccc1O)C=O,77,8154,http://www.alfa.com/en/GP100W.pgm?DSSTK=A19478,Alfa Aesar,2,77,77.5,0.5
14935,"1,3,5-Trinitro-1,3,5-triazinane",O=[N+]([O-])N1CN(CN(C1)[N+]([O-])=O)[N+]([O-])=O,205,8177,http://msds.chem.ox.ac.uk/,academic website,2,205,205.5,0.5
1098,"2,2',4,4'-tetrahydroxybenzophenone",c1cc(c(cc1O)O)C(=O)c2ccc(cc2O)O,201,8253,http://www.alfa.com/en/GP100W.pgm?DSSTK=A10237,Alfa Aesar,2,201,201.5,0.5
3040,2-phenylquinoline-4-carboxylic acid,c1ccc(cc1)c2cc(c3ccccc3n2)C(=O)O,215,8274,http://www.alfa.com/en/GP100W.pgm?DSSTK=A18734,Alfa Aesar,2,214.5,215,0.5
4038,3-iodopropionic acid,C(CI)C(=O)O,82,8524,http://www.alfa.com/en/GP100W.pgm?DSSTK=L02655,Alfa Aesar,2,81.5,82,0.5
13435,"1,3-dichloropropane",ClCCCCl,-100,8543,http://www.questia.com/library/book/physical_properties_of_chemical_compounds_by_robert_rickert_dreisbach.jsp,Dreisbach R. R. Physical Properties of Chemical Compounds; Vol. III; American Chemical Society; Washington; 1961.,2,-100,-99.5,0.5
1101,"2,2,4-trimethyl-1,3-pentanediol",CC(C)C(C(C)(C)CO)O,52,8602,http://www.alfa.com/en/GP100W.pgm?DSSTK=B21328,Alfa Aesar,2,51.5,52,0.5
8282,phthalazine,c1ccc2cnncc2c1,91,8852,http://www.alfa.com/en/GP100W.pgm?DSSTK=A12270,Alfa Aesar,2,90.5,91,0.5
16044,Oxanthrene,c1ccc2Oc3ccccc3Oc2c1,122.5,8861,http://msds.chem.ox.ac.uk/,academic website,2,122,122.5,0.5