key,name,smiles,mpC,csid,link,source,count,min,max,range
13517,3-aminobenzonitrile,N#Cc1cc(N)ccc1,52,21111842,http://www.amazon.com/dp/B003XEQTLE,Aldrich Chemical Company; Aldrich Catalog-Handbook of Fine Chemicals; Milwaukee; WI; 1984.,3,52,54.3,2.3
13769,4-isopropylphenol,CC(C)c1ccc(O)cc1,61,7185,http://www.amazon.com/dp/B003XEQTLE,Aldrich Chemical Company; Aldrich Catalog-Handbook of Fine Chemicals; Milwaukee; WI; 1984.,5,60,62.3,2.3
7360,isobutyrophenone,CC(C)C(=O)c1ccccc1,1,62359,http://www.alfa.com/en/GP100W.pgm?DSSTK=B24628,Alfa Aesar,2,-1.3,1,2.3
15687,Cyclohexylbenzene,c1cc(ccc1)C2CCCCC2,5,12674,http://msds.chem.ox.ac.uk/,academic website,4,5,7.3,2.3
8119,nonanoic acid,CCCCCCCCC(=O)O,10,7866,http://www.alfa.com/en/GP100W.pgm?DSSTK=B21568,Alfa Aesar,3,10,12.3,2.3
15732,Dimethyl adipate,O=C(CCCCC(=O)OC)OC,8,11824,http://msds.chem.ox.ac.uk/,academic website,4,8,10.3,2.3
6868,diethylsilane,CC[SiH2]CC,-132,61632,http://www.alfa.com/en/GP100W.pgm?DSSTK=L16468,Alfa Aesar,2,-134.3,-132,2.3
3253,"3,4,5-trimethoxybenzoic acid",COc1cc(cc(c1OC)OC)C(=O)O,170,8054,http://www.alfa.com/en/GP100W.pgm?DSSTK=A14274,Alfa Aesar,3,170,172.3,2.3
8886,piroxicam,CN2C(=C(O)c1ccccc1S2(=O)=O)C(=O)Nc3ccccn3,198,10442653,http://dx.doi.org/10.1021/ci020280x,Bergstrom C. A. S.; Norinder U.; Luthman K.; Artursson P. Molecular Descriptors Influencing Melting Point and Their Role in Classification of Solid Drugs. J. Chem. Inf. Comput. Sci.; (Article); 2003; 43(4); 1177-1332,4,198,200.3,2.3
27444,"1,2,3-Trichlorobenzene",C1=CC(=C(C(=C1)Cl)Cl)Cl,53,13864445,http://dx.doi.org/10.1016/j.chemosphere.2013.10.095,Abraham M.H. and Acree Jr. W.E. The solubility of liquid and solid compounds in dry octan-1-ol. Chemosphere (2013),7,52.6,55,2.4
3542,"3,5-lutidine",Cc1cc(cnc1)C,-9,11077,http://www.alfa.com/en/GP100W.pgm?DSSTK=A14877,Alfa Aesar,2,-9,-6.6,2.4
4662,4-benzylpyridine,c1ccc(cc1)Cc2ccncc2,10,15603,http://www.alfa.com/en/GP100W.pgm?DSSTK=A14326,Alfa Aesar,2,10,12.4,2.4
8572,trans-3-hexene,CC/C=C/CC,-113,553629,http://www.alfa.com/en/GP100W.pgm?DSSTK=L10311,Alfa Aesar,3,-115.4,-113,2.4
27692,4-Methylbenzoic acid,CC1=CC=C(C=C1)C(=O)O,181,7190,http://dx.doi.org/10.1016/j.chemosphere.2013.10.095,Abraham M.H. and Acree Jr. W.E. The solubility of liquid and solid compounds in dry octan-1-ol. Chemosphere (2013),8,179.6,182,2.4
6318,acetohydroxamic acid,CC(=O)NO,88,1913,http://www.alfa.com/en/GP100W.pgm?DSSTK=L01569,Alfa Aesar,2,88,90.5,2.5
5643,"5,5-dimethyloxazolidine-2,4-dione",CC1(C(=O)NC(=O)O1)C,79,2972,http://www.alfa.com/en/GP100W.pgm?DSSTK=A10714,Alfa Aesar,2,76.5,79,2.5
15133,"2,2'-Methylenebis(3,4,6-trichlorophenol)",Clc2c(Cc1c(O)c(Cl)cc(Cl)c1Cl)c(O)c(Cl)cc2Cl,164,3472,http://msds.chem.ox.ac.uk/,academic website,2,164,166.5,2.5
8434,sucrose,C([C@@H]1[C@H]([C@@H]([C@H]([C@H](O1)O[C@]2([C@H]([C@@H]([C@H](O2)CO)O)O)CO)O)O)O)O,188,5768,http://www.alfa.com/en/GP100W.pgm?DSSTK=A15583,Alfa Aesar,2,185.5,188,2.5
6639,chlorotriphenylsilane,c1ccc(cc1)[Si](c2ccccc2)(c3ccccc3)Cl,94,6216,http://www.alfa.com/en/GP100W.pgm?DSSTK=A13678,Alfa Aesar,2,91.5,94,2.5
4407,"4,4'-dichlorobenzophenone",c1cc(ccc1C(=O)c2ccc(cc2)Cl)Cl,145,6767,http://www.alfa.com/en/GP100W.pgm?DSSTK=A12608,Alfa Aesar,2,145,147.5,2.5
3987,3-hydroxy-2-naphthoic acid,c1ccc2cc(c(cc2c1)C(=O)O)O,220,6837,http://www.alfa.com/en/GP100W.pgm?DSSTK=A19214,Alfa Aesar,2,220,222.5,2.5
6015,5-nitrosalicylic acid,c1cc(c(cc1[N+](=O)[O-])C(=O)O)O,232,7042,http://www.alfa.com/en/GP100W.pgm?DSSTK=A13010,Alfa Aesar,2,229.5,232,2.5
7358,isobutyric anhydride,CC(C)C(=O)OC(=O)C(C)C,-56,7069,http://www.alfa.com/en/GP100W.pgm?DSSTK=L13240,Alfa Aesar,2,-56,-53.5,2.5
8449,terephthaloyl chloride,c1cc(ccc1C(=O)Cl)C(=O)Cl,81,7207,http://www.alfa.com/en/GP100W.pgm?DSSTK=A11224,Alfa Aesar,2,81,83.5,2.5
7826,"N,N',N''-triphenylguanidine",c1ccc(cc1)NC(=Nc2ccccc2)Nc3ccccc3,144,7258,http://www.alfa.com/en/GP100W.pgm?DSSTK=A18794,Alfa Aesar,2,144,146.5,2.5
15365,"3,7-Dinitroso-1,3,5,7-tetraazabicyclo[3.3.1]nonane",O=NN1CN2CN(C1)CN(C2)N=O,207,7268,http://msds.chem.ox.ac.uk/,academic website,2,204.5,207,2.5
4400,"4,4'-diaminodiphenylmethane",c1cc(ccc1Cc2ccc(cc2)N)N,90,7296,http://www.alfa.com/en/GP100W.pgm?DSSTK=A15645,Alfa Aesar,2,90,92.5,2.5
2087,2-benzylpyridine,c1ccc(cc1)Cc2ccccn2,10,7300,http://www.alfa.com/en/GP100W.pgm?DSSTK=A10662,Alfa Aesar,2,10,12.5,2.5
2056,2-aminopyrimidine,c1cnc(nc1)N,125,7690,http://www.alfa.com/en/GP100W.pgm?DSSTK=B24594,Alfa Aesar,2,125,127.5,2.5
6877,diisopropanolamine,CC(CNCC(C)O)O,42,7795,http://www.alfa.com/en/GP100W.pgm?DSSTK=A18451,Alfa Aesar,2,42,44.5,2.5
5375,4-methyl-2-nitrophenol,Cc1ccc(c(c1)[N+](=O)[O-])O,34,8086,http://www.alfa.com/en/GP100W.pgm?DSSTK=A12009,Alfa Aesar,2,34,36.5,2.5
16074,Phenoxathiine,c1ccc2Sc3ccccc3Oc2c1,59.5,8862,http://msds.chem.ox.ac.uk/,academic website,2,57,59.5,2.5
2658,2-fluorobenzoic acid,c1ccc(c(c1)C(=O)O)F,124,9547,http://www.alfa.com/en/GP100W.pgm?DSSTK=A11015,Alfa Aesar,2,124,126.5,2.5
604,"1,3-cyclohexanedione",C1CC(=O)CC(=O)C1,103,10004,http://www.alfa.com/en/GP100W.pgm?DSSTK=A11109,Alfa Aesar,2,103,105.5,2.5
1156,"2,2'-furoin",c1cc(oc1)C(C(=O)c2ccco2)O,138,10629,http://www.alfa.com/en/GP100W.pgm?DSSTK=A15272,Alfa Aesar,2,135.5,138,2.5
1459,"2,4-dichloroanisole",COc1ccc(cc1Cl)Cl,26,10648,http://www.alfa.com/en/GP100W.pgm?DSSTK=B20042,Alfa Aesar,2,26,28.5,2.5
3645,3-aminoquinoline,c1ccc2c(c1)cc(cn2)N,94,10897,http://www.alfa.com/en/GP100W.pgm?DSSTK=A16592,Alfa Aesar,2,91.5,94,2.5
8431,succinimide,C1CC(=O)NC1=O,124,10955,http://www.alfa.com/en/GP100W.pgm?DSSTK=A13503,Alfa Aesar,2,124,126.5,2.5
3736,3-bromopropionic acid,C(CBr)C(=O)O,60,11066,http://www.alfa.com/en/GP100W.pgm?DSSTK=A11573,Alfa Aesar,2,60,62.5,2.5
2995,2-nitrothiophene,c1cc(sc1)[N+](=O)[O-],44,11373,http://www.alfa.com/en/GP100W.pgm?DSSTK=A17464,Alfa Aesar,2,44,46.5,2.5
15542,7-Methylquinoline,Cc1cc2ncccc2cc1,36.5,11433,http://msds.chem.ox.ac.uk/,academic website,2,36.5,39,2.5
7848,"N,N'-diethylurea",CCNC(=O)NCC,110,11694,http://www.alfa.com/en/GP100W.pgm?DSSTK=L02079,Alfa Aesar,2,110,112.5,2.5
8112,N-octacosane,CCCCCCCCCCCCCCCCCCCCCCCCCCCC,62,11902,http://www.alfa.com/en/GP100W.pgm?DSSTK=42460,Alfa Aesar,2,62,64.5,2.5
15761,Docosan-1-ol,CCCCCCCCCCCCCCCCCCCCCCO,70,12100,http://msds.chem.ox.ac.uk/,academic website,2,70,72.5,2.5
6762,delta-valerolactam,C1CCNC(=O)C1,37,12144,http://www.alfa.com/en/GP100W.pgm?DSSTK=A12271,Alfa Aesar,2,37,39.5,2.5
6494,benzyl phenyl sulfide,c1ccc(cc1)CSc2ccccc2,41,12697,http://www.alfa.com/en/GP100W.pgm?DSSTK=A16171,Alfa Aesar,2,41,43.5,2.5
18768,"1,2-cyclohexanediol-cis",OC1CCCCC1O,100,13012,http://www.srcinc.com/what-we-do/product.aspx?id=133,PHYSPROP,2,100,102.5,2.5
1928,2-amino-3-methylpyridine,Cc1cccnc1N,31,14608,http://www.alfa.com/en/GP100W.pgm?DSSTK=A10224,Alfa Aesar,2,31,33.5,2.5
4821,4-bromophenyl isothiocyanate,c1cc(ccc1N=C=S)Br,58,15317,http://www.alfa.com/en/GP100W.pgm?DSSTK=L11101,Alfa Aesar,2,58,60.5,2.5
6775,diacetone acrylamide,CC(=O)CC(C)(C)NC(=O)C=C,55,16896,http://www.alfa.com/en/GP100W.pgm?DSSTK=A15940,Alfa Aesar,2,55,57.5,2.5
12890,"1,3,3-Trimethyl-1-phenylindan",CC1(C)CC(C)(c2ccccc21)c1ccccc1,50,18644,http://dx.doi.org/10.1021/ci0500132,Karthikeyan M.; Glen R.C.; Bender A. General melting point prediction based on a diverse compound dataset and artificial neural networks. J. Chem. Inf. Model.; 2005; 45(3); 581-4472,2,50,52.5,2.5
3219,"3,3-dimethylglutaric acid",CC(C)(CC(=O)O)CC(=O)O,101,19739,http://www.alfa.com/en/GP100W.pgm?DSSTK=B20388,Alfa Aesar,2,101,103.5,2.5
14042,3-chloro-p-anisidine,COc1ccc(N)cc1Cl,50,20151,http://www.amazon.com/dp/B003XEQTLE,Aldrich Chemical Company; Aldrich Catalog-Handbook of Fine Chemicals; Milwaukee; WI; 1984.,2,50,52.5,2.5
8476,tetrachlorothiophene,c1(c(c(sc1Cl)Cl)Cl)Cl,28,20971,http://www.alfa.com/en/GP100W.pgm?DSSTK=L03127,Alfa Aesar,2,28,30.5,2.5
12867,"2-Methyl-1-nitro-9,10-anthraquinone",O=[N+]([O-])c1c(C)ccc2C(=O)c3ccccc3C(=O)c12,268,29156,http://dx.doi.org/10.1021/ci0500132,Karthikeyan M.; Glen R.C.; Bender A. General melting point prediction based on a diverse compound dataset and artificial neural networks. J. Chem. Inf. Model.; 2005; 45(3); 581-4449,2,268,270.5,2.5
3432,"3,5-dichlorobenzyl alcohol",c1c(cc(cc1Cl)Cl)CO,78,39404,http://www.alfa.com/en/GP100W.pgm?DSSTK=A13527,Alfa Aesar,2,78,80.5,2.5
8412,sebacoyl chloride,C(CCCCC(=O)Cl)CCCC(=O)Cl,-5,59462,http://www.alfa.com/en/GP100W.pgm?DSSTK=A14226,Alfa Aesar,2,-5,-2.5,2.5
1830,"2,6-di-tert-butyl-4-(dimethylaminomethyl)phenol",CC(C)(C)c1cc(cc(c1O)C(C)(C)C)CN(C)C,91,59976,http://www.alfa.com/en/GP100W.pgm?DSSTK=B21952,Alfa Aesar,2,91,93.5,2.5
7308,homopiperazine,C1CNCCNC1,41,61471,http://www.alfa.com/en/GP100W.pgm?DSSTK=A15751,Alfa Aesar,2,41,43.5,2.5
4432,"4,4'-dimethylbenzophenone",Cc1ccc(cc1)C(=O)c2ccc(cc2)C,94,62363,http://www.alfa.com/en/GP100W.pgm?DSSTK=A14111,Alfa Aesar,2,94,96.5,2.5
12810,N-(Methylcarbamoyl)acetamid,O=C(NC)NC(=O)C,178,62546,http://dx.doi.org/10.1021/ci0500132,Karthikeyan M.; Glen R.C.; Bender A. General melting point prediction based on a diverse compound dataset and artificial neural networks. J. Chem. Inf. Model.; 2005; 45(3); 581-4392,2,178,180.5,2.5
5335,4-methoxybenzoic anhydride,COc1ccc(cc1)C(=O)OC(=O)c2ccc(cc2)OC,97,63122,http://www.alfa.com/en/GP100W.pgm?DSSTK=L06180,Alfa Aesar,2,94.5,97,2.5
7560,methyl 3-hydroxy-2-naphthoate,COC(=O)c1cc2ccccc2cc1O,73,63350,http://www.alfa.com/en/GP100W.pgm?DSSTK=L14533,Alfa Aesar,2,73,75.5,2.5
6540,bis(2-nitrophenyl) disulfide,c1ccc(c(c1)[N+](=O)[O-])SSc2ccccc2[N+](=O)[O-],194,64024,http://www.alfa.com/en/GP100W.pgm?DSSTK=B25615,Alfa Aesar,2,194,196.5,2.5
14057,p-diisopropenylbenzene,CC(=C)c1ccc(cc1)C(=C)C,66,66759,http://www.amazon.com/dp/B003XEQTLE,Aldrich Chemical Company; Aldrich Catalog-Handbook of Fine Chemicals; Milwaukee; WI; 1984.,2,63.5,66,2.5
8473,tetrabromothiophene,c1(c(c(sc1Br)Br)Br)Br,115,69970,http://www.alfa.com/en/GP100W.pgm?DSSTK=A13009,Alfa Aesar,2,115,117.5,2.5
8599,triacetoxy(methyl)silane,CC(=O)O[Si](C)(OC(=O)C)OC(=O)C,43,70319,http://www.alfa.com/en/GP100W.pgm?DSSTK=B23974,Alfa Aesar,2,40.5,43,2.5
1758,"2,6-dichloropyrazine",c1c(nc(cn1)Cl)Cl,54,70868,http://www.alfa.com/en/GP100W.pgm?DSSTK=A11175,Alfa Aesar,2,54,56.5,2.5
1512,"2,4-dimethoxy-1-nitrobenzene",COc1ccc(c(c1)OC)[N+](=O)[O-],74,70990,http://www.alfa.com/en/GP100W.pgm?DSSTK=B25353,Alfa Aesar,2,74,76.5,2.5
27868,boc-alanine,O=C(OC(C)(C)C)N[C@H](C(=O)O)C,79.5,76745,http://www.alfa.com/content/msds/USA/A16018.pdf,Alfa Aesar,2,79.5,82,2.5
722,"1,2,3-trichloro-5-nitrobenzene",c1c(cc(c(c1Cl)Cl)Cl)[N+](=O)[O-],70,79719,http://www.alfa.com/en/GP100W.pgm?DSSTK=B21511,Alfa Aesar,2,70,72.5,2.5
5715,5-aminoindane,c1cc2c(cc1N)CCC2,35,81705,http://www.alfa.com/en/GP100W.pgm?DSSTK=L02504,Alfa Aesar,2,35,37.5,2.5
14591,benzoin_methyl_ether,COC(C(=O)c1ccccc1)c2ccccc2,47,88569,http://www.amazon.com/dp/B003XEQTLE,Aldrich Chemical Company; Aldrich Catalog-Handbook of Fine Chemicals; Milwaukee; WI; 1984.,2,47,49.5,2.5
15320,2-O-Acetyl-3-O-bromo-D-glucose,Br[C@H]1O[C@H](COC(C)=O)[C@@H](OC(C)=O)[C@H](OC(C)=O)[C@H]1OC(C)=O,89.5,91958,http://msds.chem.ox.ac.uk/,academic website,2,87,89.5,2.5
5935,5-hydroxymethyl-2-furaldehyde,c1cc(oc1CO)C=O,34,207215,http://www.alfa.com/en/GP100W.pgm?DSSTK=A12475,Alfa Aesar,2,31.5,34,2.5
7728,methyltriphenylsilane,C[Si](c1ccccc1)(c2ccccc2)c3ccccc3,67,455964,http://www.alfa.com/en/GP100W.pgm?DSSTK=L10995,Alfa Aesar,2,67,69.5,2.5
1639,"2,5-dimethoxyaniline",COc1ccc(c(c1)N)OC,80,13869661,http://www.alfa.com/en/GP100W.pgm?DSSTK=L05053,Alfa Aesar,2,80,82.5,2.5
1341,"2,4,5-trichloroaniline",c1c(c(cc(c1Cl)Cl)Cl)N,94,21111772,http://www.alfa.com/en/GP100W.pgm?DSSTK=B21113,Alfa Aesar,2,94,96.5,2.5
9032,"1,4-bis(bromomethyl)benzene",BrCc1ccc(cc1)CBr,142,21125563,http://dx.doi.org/10.1021/ci0500132,Karthikeyan M.; Glen R.C.; Bender A. General melting point prediction based on a diverse compound dataset and artificial neural networks. J. Chem. Inf. Model.; 2005; 45(3); 581-607,2,142,144.5,2.5
14772,"(2,4-Dichlorophenoxy)acetic acid",Clc1cc(Cl)ccc1OCC(=O)O,138,1441,http://msds.chem.ox.ac.uk/,academic website,3,138,140.5,2.5
13777,m-aminobenzamide,O=C(N)c1cc(N)ccc1,115,1583,http://www.amazon.com/dp/B003XEQTLE,Aldrich Chemical Company; Aldrich Catalog-Handbook of Fine Chemicals; Milwaukee; WI; 1984.,3,113,115.5,2.5
3101,"3-(2-methoxyphenoxy)-1,2-propanediol",COc1ccccc1OCC(CO)O,81,3396,http://www.alfa.com/en/GP100W.pgm?DSSTK=A16827,Alfa Aesar,3,78.5,81,2.5
8973,oxaprozin,OC(=O)CCc2nc(c1ccccc1)c(o2)c3ccccc3,161,4453,http://dx.doi.org/10.1021/ci020280x,Bergstrom C. A. S.; Norinder U.; Luthman K.; Artursson P. Molecular Descriptors Influencing Melting Point and Their Role in Classification of Solid Drugs. J. Chem. Inf. Comput. Sci.; (Article); 2003; 43(4); 1177-1419,3,158.5,161,2.5
15528,"6,7,8,9-Tetrahydro-5H-tetrazolo[1,5-a]azepine",C1CCCc2nnnn2C1,57.5,5704,http://msds.chem.ox.ac.uk/,academic website,3,57.5,60,2.5
14483,ethyl_p-toluenesulfonate,O=S(=O)(OCC)c1ccc(C)cc1,34,6386,http://www.amazon.com/dp/B003XEQTLE,Aldrich Chemical Company; Aldrich Catalog-Handbook of Fine Chemicals; Milwaukee; WI; 1984.,3,32,34.5,2.5
15383,3-Methyl-1H-indole,Cc2cnc1ccccc12,95,6480,http://msds.chem.ox.ac.uk/,academic website,3,95,97.5,2.5
14010,"2,6-dimethoxyphenol",COc1cccc(OC)c1O,55,6774,http://www.amazon.com/dp/B003XEQTLE,Aldrich Chemical Company; Aldrich Catalog-Handbook of Fine Chemicals; Milwaukee; WI; 1984.,3,54,56.5,2.5
13773,4-hydroxyacetophenone,O=C(C)c1ccc(O)cc1,108,7189,http://www.amazon.com/dp/B003XEQTLE,Aldrich Chemical Company; Aldrich Catalog-Handbook of Fine Chemicals; Milwaukee; WI; 1984.,3,107,109.5,2.5
15468,4-Hydroxy-3-methoxybenzoic acid,Oc1ccc(cc1OC)C(=O)O,211.5,8155,http://msds.chem.ox.ac.uk/,academic website,3,211.5,214,2.5
15216,2-{(E)-[4-(Dimethylamino)phenyl]diazenyl}benzoic acid,CN(C)c2ccc(/N=N/c1ccccc1C(=O)O)cc2,180.5,9881,http://msds.chem.ox.ac.uk/,academic website,3,180.5,183,2.5
15466,"4-Hydroxy-3,5-dimethoxybenzoic acid",COc1cc(cc(OC)c1O)C(=O)O,205,10289,http://msds.chem.ox.ac.uk/,academic website,3,205,207.5,2.5
15233,2-Chloro-1-phenylethanone,O=C(CCl)c1ccccc1,55,10303,http://msds.chem.ox.ac.uk/,academic website,3,54,56.5,2.5
3217,"3,3-dimethylacrylic acid",CC(=CC(=O)O)C,67,10468,http://www.alfa.com/en/GP100W.pgm?DSSTK=A16865,Alfa Aesar,3,67,69.5,2.5
13959,o-nitrobenzaldehyde,O=[N+]([O-])c1ccccc1C=O,46,10630,http://www.amazon.com/dp/B003XEQTLE,Aldrich Chemical Company; Aldrich Catalog-Handbook of Fine Chemicals; Milwaukee; WI; 1984.,3,43.5,46,2.5
13568,4-methylbenzyl_alcohol,Cc1ccc(CO)cc1,61,11021,http://www.amazon.com/dp/B003XEQTLE,Aldrich Chemical Company; Aldrich Catalog-Handbook of Fine Chemicals; Milwaukee; WI; 1984.,3,59,61.5,2.5
6543,bis(4-bromophenyl) ether,c1cc(ccc1Oc2ccc(cc2)Br)Br,58,15471,http://www.alfa.com/en/GP100W.pgm?DSSTK=16684,Alfa Aesar,3,58,60.5,2.5
15206,"2,6-Di-tert-butylphenol",CC(C)(C)c1cccc(c1O)C(C)(C)C,36.5,29135,http://msds.chem.ox.ac.uk/,academic website,3,36.5,39,2.5
15502,"4'-Phenyl-3H,3'H-spiro[2-benzofuran-1,2'-furan]-3,3'-dione",O=C4OC1(OC=C(C1=O)c2ccccc2)c3ccccc34,155,34768,http://msds.chem.ox.ac.uk/,academic website,3,154.5,157,2.5
6470,benzoylacetonitrile,c1ccc(cc1)C(=O)CC#N,81,58331,http://www.alfa.com/en/GP100W.pgm?DSSTK=A14473,Alfa Aesar,3,80.5,83,2.5
13834,2-chloro-5-methylaniline,Cc1ccc(Cl)c(N)c1,31,60136,http://www.amazon.com/dp/B003XEQTLE,Aldrich Chemical Company; Aldrich Catalog-Handbook of Fine Chemicals; Milwaukee; WI; 1984.,3,29.5,32,2.5
15199,"2,6-Dimethyl-1,4-benzoquinone",O=C1C=C(C)C(=O)C(C)=C1,70,61542,http://msds.chem.ox.ac.uk/,academic website,3,70,72.5,2.5
14110,2-acetylbenzoic_acid,OC(=O)c1ccccc1C(C)=O,116,61749,http://www.amazon.com/dp/B003XEQTLE,Aldrich Chemical Company; Aldrich Catalog-Handbook of Fine Chemicals; Milwaukee; WI; 1984.,3,114.5,117,2.5
13998,4-nitrobenzyl_alcohol,O=[N+]([O-])c1ccc(CO)cc1,94,62486,http://www.amazon.com/dp/B003XEQTLE,Aldrich Chemical Company; Aldrich Catalog-Handbook of Fine Chemicals; Milwaukee; WI; 1984.,3,94,96.5,2.5
3371,"3',5,7-trihydroxy-4'-methoxyflavanone",COc1ccc(cc1O)[C@@H]2CC(=O)c3c(cc(cc3O2)O)O,230,65234,http://www.alfa.com/en/GP100W.pgm?DSSTK=B20528,Alfa Aesar,3,227.5,230,2.5
4614,4-aminostyrene,C=Cc1ccc(cc1)N,24,66344,http://www.alfa.com/en/GP100W.pgm?DSSTK=L11845,Alfa Aesar,3,23.5,26,2.5
15550,9H-Fluoren-9-ol,OC3c1ccccc1c2ccccc23,153.5,66916,http://msds.chem.ox.ac.uk/,academic website,3,153.5,156,2.5
14955,"1,3-Diphenylthiourea",S=C(Nc1ccccc1)Nc2ccccc2,154,610932,http://msds.chem.ox.ac.uk/,academic website,3,152,154.5,2.5
14825,"(5alpha,6alpha)-3-Methoxy-17-methyl-7,8-didehydro-4,5-epoxymorphinan-6-ol",COc1ccc2C[C@H]4N(C)CC[C@@]35[C@@H](Oc1c23)[C@@H](O)C=C[C@@H]45,155,4447447,http://msds.chem.ox.ac.uk/,academic website,3,155,157.5,2.5
15848,"Hexane-1,6-diamine",NCCCCCCN,39,13835579,http://msds.chem.ox.ac.uk/,academic website,3,39,41.5,2.5
14197,m-bromoaniline,Nc1cc(Br)ccc1,17,13860633,http://www.amazon.com/dp/B003XEQTLE,Aldrich Chemical Company; Aldrich Catalog-Handbook of Fine Chemicals; Milwaukee; WI; 1984.,3,16,18.5,2.5
14073,"2,4-dichloroaniline",Clc1cc(Cl)c(N)cc1,61,13860817,http://www.amazon.com/dp/B003XEQTLE,Aldrich Chemical Company; Aldrich Catalog-Handbook of Fine Chemicals; Milwaukee; WI; 1984.,3,61,63.5,2.5
16155,Thymol,CC(C)c1ccc(C)cc1O,49,21105998,http://msds.chem.ox.ac.uk/,academic website,3,49,51.5,2.5
13743,m-aminoacetophenone,O=C(C)c1cc(N)ccc1,97,21106518,http://www.amazon.com/dp/B003XEQTLE,Aldrich Chemical Company; Aldrich Catalog-Handbook of Fine Chemicals; Milwaukee; WI; 1984.,3,96,98.5,2.5
14161,"1,3,5-trimethoxybenzene",COc1cc(cc(OC)c1)OC,53,21111723,http://www.amazon.com/dp/B003XEQTLE,Aldrich Chemical Company; Aldrich Catalog-Handbook of Fine Chemicals; Milwaukee; WI; 1984.,3,52,54.5,2.5
13702,4-methoxybenzonitrile,COc1ccc(C#N)cc1,59,21112332,http://www.amazon.com/dp/B003XEQTLE,Aldrich Chemical Company; Aldrich Catalog-Handbook of Fine Chemicals; Milwaukee; WI; 1984.,3,59,61.5,2.5
8249,phenolphthalein,c1ccc2c(c1)C(=O)OC2(c3ccc(cc3)O)c4ccc(cc4)O,260,4600,http://www.alfa.com/en/GP100W.pgm?DSSTK=38705,Alfa Aesar,4,260,262.5,2.5
28402,Pentachloronitrobenzene,C1(=C(C(=C(C(=C1Cl)Cl)Cl)Cl)Cl)[N+](=O)[O-],144,6464,http://dx.doi.org/10.1016/j.chemosphere.2013.10.095,Abraham M.H. and Acree Jr. W.E. The solubility of liquid and solid compounds in dry octan-1-ol. Chemosphere (2013),4,141.5,144,2.5
15619,Biphenyl-2-amine,Nc2ccccc2c1ccccc1,51.5,6748,http://msds.chem.ox.ac.uk/,academic website,4,49,51.5,2.5
8876,phenallymal,C=CCC1(C(=O)NC(=O)NC1=O)c2ccccc2,156,7975,http://dx.doi.org/10.1021/ci020280x,Bergstrom C. A. S.; Norinder U.; Luthman K.; Artursson P. Molecular Descriptors Influencing Melting Point and Their Role in Classification of Solid Drugs. J. Chem. Inf. Comput. Sci.; (Article); 2003; 43(4); 1177-1322,4,156,158.5,2.5
15059,"1-Methyl-2,4-dinitrobenzene",Cc1ccc(cc1[N+](=O)[O-])[N+]([O-])=O,68.5,8150,http://msds.chem.ox.ac.uk/,academic website,4,68.5,71,2.5
15492,4-Nitrobenzamide,O=[N+]([O-])c1ccc(cc1)C(N)=O,202.5,11594,http://msds.chem.ox.ac.uk/,academic website,4,200,202.5,2.5
13521,3-cyanophenol,N#Cc1cc(O)ccc1,82,12821,http://www.amazon.com/dp/B003XEQTLE,Aldrich Chemical Company; Aldrich Catalog-Handbook of Fine Chemicals; Milwaukee; WI; 1984.,4,79.5,82,2.5
15450,4-Chloroaniline,Nc1ccc(Cl)cc1,72.5,13869339,http://msds.chem.ox.ac.uk/,academic website,4,70,72.5,2.5
27682,4-Hydroxybenzoic acid,C1=CC(=CC=C1C(=O)O)O,216,132,http://dx.doi.org/10.1016/j.chemosphere.2013.10.095,Abraham M.H. and Acree Jr. W.E. The solubility of liquid and solid compounds in dry octan-1-ol. Chemosphere (2013),5,214.5,217,2.5
1503,"2',4-dihydroxy-3-methoxychalcone",COc1cc(ccc1O)/C=C/C(=O)c2ccccc2O,128,4767768,http://www.alfa.com/en/GP100W.pgm?DSSTK=H27537,Alfa Aesar,5,126.5,129,2.5
28556,Sulfathiazole,C1=CC(=CC=C1N)S(=O)(=O)NC2=NC=CS2,200,5148,http://dx.doi.org/10.1016/j.chemosphere.2013.10.095,Abraham M.H. and Acree Jr. W.E. The solubility of liquid and solid compounds in dry octan-1-ol. Chemosphere (2013),6,200,202.5,2.5