key,name,smiles,mpC,csid,link,source,count,min,max,range
15589,Anthracene-9-carbonitrile,N#Cc2c3ccccc3cc1ccccc12,175,13924,http://msds.chem.ox.ac.uk/,academic website,3,175,177,2
5268,4-iodobiphenyl,c1ccc(cc1)c2ccc(cc2)I,112,14585,http://www.alfa.com/en/GP100W.pgm?DSSTK=H27453,Alfa Aesar,3,112,114,2
16099,Pyren-1-amine,Nc4ccc1ccc2cccc3ccc4c1c23,116,14613,http://msds.chem.ox.ac.uk/,academic website,3,116,118,2
14363,cyclododecanol,OC1CCCCCCCCCCC1,76,14836,http://www.amazon.com/dp/B003XEQTLE,Aldrich Chemical Company; Aldrich Catalog-Handbook of Fine Chemicals; Milwaukee; WI; 1984.,3,76,78,2
2539,2-dodecanone,CCCCCCCCCCC(=O)C,19,21153,http://www.alfa.com/en/GP100W.pgm?DSSTK=A18862,Alfa Aesar,3,19,21,2
14370,4-bromo-3-methylaniline,Nc1ccc(Br)c(C)c1,79,21844,http://www.amazon.com/dp/B003XEQTLE,Aldrich Chemical Company; Aldrich Catalog-Handbook of Fine Chemicals; Milwaukee; WI; 1984.,3,79,81,2
13704,4-hydroxybenzyl_cyanide,Oc1ccc(CC#N)cc1,71,24729,http://www.amazon.com/dp/B003XEQTLE,Aldrich Chemical Company; Aldrich Catalog-Handbook of Fine Chemicals; Milwaukee; WI; 1984.,3,69,71,2
14504,chlorodibromomethane,BrC(Br)Cl,-22,29036,http://www.amazon.com/dp/B003XEQTLE,Aldrich Chemical Company; Aldrich Catalog-Handbook of Fine Chemicals; Milwaukee; WI; 1984.,3,-22,-20,2
14064,"2,3-dichlorotoluene",Cc1cccc(Cl)c1Cl,6,31931,http://www.amazon.com/dp/B003XEQTLE,Aldrich Chemical Company; Aldrich Catalog-Handbook of Fine Chemicals; Milwaukee; WI; 1984.,3,4,6,2
15703,"Decane-1,10-diol",OCCCCCCCCCCO,72,34095,http://msds.chem.ox.ac.uk/,academic website,3,72,74,2
2951,2-naphthyl benzoate,c1ccc(cc1)C(=O)Oc2ccc3ccccc3c2,107,60100,http://www.alfa.com/en/GP100W.pgm?DSSTK=A12935,Alfa Aesar,3,105,107,2
13928,4-tert-butylaniline,CC(C)(C)c1ccc(N)cc1,15,63057,http://www.amazon.com/dp/B003XEQTLE,Aldrich Chemical Company; Aldrich Catalog-Handbook of Fine Chemicals; Milwaukee; WI; 1984.,3,15,17,2
5994,5-methylpyrimidine,Cc1cncnc1,30,67424,http://www.alfa.com/en/GP100W.pgm?DSSTK=L19638,Alfa Aesar,3,30,32,2
14511,pentaerythrityl_tetrachloride,ClCC(CCl)(CCl)CCl,95,69160,http://www.amazon.com/dp/B003XEQTLE,Aldrich Chemical Company; Aldrich Catalog-Handbook of Fine Chemicals; Milwaukee; WI; 1984.,3,95,97,2
14557,2-bromo-4-nitrotoluene,Cc1ccc(cc1Br)[N+]([O-])=O,76,74171,http://www.amazon.com/dp/B003XEQTLE,Aldrich Chemical Company; Aldrich Catalog-Handbook of Fine Chemicals; Milwaukee; WI; 1984.,3,76,78,2
1242,"2,3-dibromobutyric acid",CC(C(C(=O)O)Br)Br,86,86082,http://www.alfa.com/en/GP100W.pgm?DSSTK=L04841,Alfa Aesar,3,85,87,2
1139,"2,2'-dimethoxybiphenyl",COc1ccccc1c2ccccc2OC,154,531832,http://www.alfa.com/en/GP100W.pgm?DSSTK=B23411,Alfa Aesar,3,154,156,2
14939,"1,3-Benzothiazole-2-thiol",Sc1nc2ccccc2s1,179,608157,http://msds.chem.ox.ac.uk/,academic website,3,179,181,2
4855,4'-chloro-2'-fluoroacetanilide,CC(=O)Nc1ccc(cc1F)Cl,156,745600,http://www.alfa.com/en/GP100W.pgm?DSSTK=A16940,Alfa Aesar,3,155,157,2
16102,Pyridine-2-thiol,Sc1ccccn1,129,2005897,http://msds.chem.ox.ac.uk/,academic website,3,127,129,2
15493,"4-Nitrobenzene-1,2-diamine",Nc1ccc(cc1N)[N+]([O-])=O,199,4286892,http://msds.chem.ox.ac.uk/,academic website,3,199,201,2
14775,"(2alpha,5beta,7beta,10beta,13alpha)-4,10-Diacetoxy-13-{[(2R,3S)-3-(benzoylamino)-2-hydroxy-3-phenylpropanoyl]oxy}-1,7-dihydroxy-9-oxo-5,20-epoxytax-11-en-2-yl benzoate",O=C(N[C@@H](c1ccccc1)[C@@H](O)C(=O)O[C@H]5C[C@@]6(O)[C@@H](OC(=O)c2ccccc2)[C@H]4[C@@](C)([C@@H](O)C[C@H]3OC[C@]34OC(C)=O)C(=O)[C@H](OC(C)=O)C(=C5C)C6(C)C)c7ccccc7,214.5,10368587,http://msds.chem.ox.ac.uk/,academic website,3,214.5,216.5,2
14495,diethyl_adipate,O=C(CCCCC(=O)OCC)OCC,-18,13835108,http://www.amazon.com/dp/B003XEQTLE,Aldrich Chemical Company; Aldrich Catalog-Handbook of Fine Chemicals; Milwaukee; WI; 1984.,3,-20,-18,2
4947,4'-chloroacetophenone,CC(=O)c1ccc(cc1)Cl,19,13835126,http://www.alfa.com/en/GP100W.pgm?DSSTK=A12115,Alfa Aesar,3,18,20,2
14512,anthraquinone,O=C2c1ccccc1C(=O)c3ccccc23,284,13835294,http://www.amazon.com/dp/B003XEQTLE,Aldrich Chemical Company; Aldrich Catalog-Handbook of Fine Chemicals; Milwaukee; WI; 1984.,3,284,286,2
13402,m-phenylenediamine,Nc1cccc(N)c1,65,13836283,http://www.amazon.com/dp/B003XEQTLE,Aldrich Chemical Company; Aldrich Catalog-Handbook of Fine Chemicals; Milwaukee; WI; 1984.,3,63,65,2
13609,benzyl_chloride,ClCc1ccccc1,-43,13840690,http://www.amazon.com/dp/B003XEQTLE,Aldrich Chemical Company; Aldrich Catalog-Handbook of Fine Chemicals; Milwaukee; WI; 1984.,3,-45,-43,2
15027,1-Fluoro-4-nitrobenzene,Fc1ccc(cc1)[N+](=O)[O-],21,13856885,http://msds.chem.ox.ac.uk/,academic website,3,21,23,2
16167,Trichloroacetonitrile,ClC(Cl)(Cl)C#N,-42,13861934,http://msds.chem.ox.ac.uk/,academic website,3,-44,-42,2
14467,"5-bromo-1,2,4-trimethylbenzene",Cc1cc(C)c(Br)cc1C,71,13875161,http://www.amazon.com/dp/B003XEQTLE,Aldrich Chemical Company; Aldrich Catalog-Handbook of Fine Chemicals; Milwaukee; WI; 1984.,3,71,73,2
13125,malononitrile,N#CCC#N,34,13884495,http://www.amazon.com/dp/B003XEQTLE,Aldrich Chemical Company; Aldrich Catalog-Handbook of Fine Chemicals; Milwaukee; WI; 1984.,3,32,34,2
13800,4-methoxybenzyl_alcohol,COc1ccc(CO)cc1,26,21105859,http://www.amazon.com/dp/B003XEQTLE,Aldrich Chemical Company; Aldrich Catalog-Handbook of Fine Chemicals; Milwaukee; WI; 1984.,3,24,26,2
15156,"2,4,6-Tribromoaniline",Brc1cc(Br)cc(Br)c1N,121,21106171,http://msds.chem.ox.ac.uk/,academic website,3,120,122,2
16176,Trifluoroacetic anhydride,FC(F)(F)C(=O)OC(=O)C(F)(F)F,-63,21106178,http://msds.chem.ox.ac.uk/,academic website,3,-65,-63,2
13184,succinonitrile,N#CCCC#N,56,21106481,http://www.amazon.com/dp/B003XEQTLE,Aldrich Chemical Company; Aldrich Catalog-Handbook of Fine Chemicals; Milwaukee; WI; 1984.,3,54,56,2
484,"1,4-diethoxybenzene",CCOc1ccc(cc1)OCC,70,21111774,http://www.alfa.com/en/GP100W.pgm?DSSTK=A15385,Alfa Aesar,3,70,72,2
14066,"2,3-dichloroaniline",Nc1cccc(Cl)c1Cl,24,21111810,http://www.amazon.com/dp/B003XEQTLE,Aldrich Chemical Company; Aldrich Catalog-Handbook of Fine Chemicals; Milwaukee; WI; 1984.,3,22,24,2
14356,o-bromobenzaldehyde,O=Cc1ccccc1Br,22,21111817,http://www.amazon.com/dp/B003XEQTLE,Aldrich Chemical Company; Aldrich Catalog-Handbook of Fine Chemicals; Milwaukee; WI; 1984.,3,20,22,2
14284,"3,4-dimethoxyacetophenone",COc1cc(ccc1OC)C(C)=O,51,21168556,http://www.amazon.com/dp/B003XEQTLE,Aldrich Chemical Company; Aldrich Catalog-Handbook of Fine Chemicals; Milwaukee; WI; 1984.,3,49,51,2
15566,Acetamide,CC(N)=O,81,173,http://msds.chem.ox.ac.uk/,academic website,4,79,81,2
16156,Toluene,Cc1ccccc1,-93,1108,http://msds.chem.ox.ac.uk/,academic website,4,-95,-93,2
15195,"2,6-Dichlorobenzonitrile",N#Cc1c(Cl)cccc1Cl,144,2923,http://msds.chem.ox.ac.uk/,academic website,4,143,145,2
8837,hydroflumethiazide,NS(=O)(=O)c2cc1c(NCNS1(=O)=O)cc2C(F)(F)F,272,3521,http://dx.doi.org/10.1021/ci020280x,Bergstrom C. A. S.; Norinder U.; Luthman K.; Artursson P. Molecular Descriptors Influencing Melting Point and Their Role in Classification of Solid Drugs. J. Chem. Inf. Comput. Sci.; (Article); 2003; 43(4); 1177-1283,4,270.5,272.5,2
3050,2-propanol,CC(C)O,-90,3644,http://www.alfa.com/en/GP100W.pgm?DSSTK=39194,Alfa Aesar,4,-90,-88,2
13408,o-aminophenol,Nc1ccccc1O,176,5596,http://www.amazon.com/dp/B003XEQTLE,Aldrich Chemical Company; Aldrich Catalog-Handbook of Fine Chemicals; Milwaukee; WI; 1984.,4,174,176,2
15714,Dichloromethane,ClCCl,-97,6104,http://msds.chem.ox.ac.uk/,academic website,4,-97,-95,2
15128,"2,2-Dimethyl-3-methylenebicyclo[2.2.1]heptane",CC2(C)C(=C)C1CCC2C1,50,6364,http://msds.chem.ox.ac.uk/,academic website,4,50,52,2
15446,4-Chloro-2-nitroaniline,Nc1ccc(Cl)cc1[N+]([O-])=O,116.5,6713,http://msds.chem.ox.ac.uk/,academic website,4,116,118,2
14925,"1,2-Dimethyl-4-nitrobenzene",Cc1ccc(cc1C)[N+](=O)[O-],30.5,7162,http://msds.chem.ox.ac.uk/,academic website,4,29,31,2
14861,1-(Chloromethyl)-4-nitrobenzene,O=[N+]([O-])c1ccc(CCl)cc1,71,7202,http://msds.chem.ox.ac.uk/,academic website,4,71,73,2
15828,Heptan-3-one,CCC(=O)CCCC,-39,7514,http://msds.chem.ox.ac.uk/,academic website,4,-39,-37,2
15985,N-Butylbutan-1-amine,CCCCNCCCC,-60,7856,http://msds.chem.ox.ac.uk/,academic website,4,-62,-60,2
15766,Dodecan-1-ol,CCCCCCCCCCCCO,24,7901,http://msds.chem.ox.ac.uk/,academic website,4,24,26,2
15678,Cyclododecane,C1CCCCCCCCCCC1,61,8911,http://msds.chem.ox.ac.uk/,academic website,4,59,61,2
15472,4-Iodophenol,Ic1ccc(O)cc1,92,10432,http://msds.chem.ox.ac.uk/,academic website,4,92,94,2
13982,o-anisic_acid,COc1ccccc1C(=O)O,99,10892,http://www.amazon.com/dp/B003XEQTLE,Aldrich Chemical Company; Aldrich Catalog-Handbook of Fine Chemicals; Milwaukee; WI; 1984.,4,99,101,2
15368,3-Aminophenol,Nc1cccc(O)c1,125,11080,http://msds.chem.ox.ac.uk/,academic website,4,123,125,2
16129,Terephthalonitrile,N#Cc1ccc(C#N)cc1,225.5,11672,http://msds.chem.ox.ac.uk/,academic website,4,224,226,2
13740,terephthaldicarboxaldehyde,O=Cc1ccc(C=O)cc1,116,11673,http://www.amazon.com/dp/B003XEQTLE,Aldrich Chemical Company; Aldrich Catalog-Handbook of Fine Chemicals; Milwaukee; WI; 1984.,4,115,117,2
14593,"methyl_3,4,5-trimethoxybenzoate",COc1c(cc(cc1OC)C(=O)OC)OC,84,15161,http://www.amazon.com/dp/B003XEQTLE,Aldrich Chemical Company; Aldrich Catalog-Handbook of Fine Chemicals; Milwaukee; WI; 1984.,4,83,85,2
14761,"(1R,2S,5R)-2-Isopropyl-5-methylcyclohexanol",CC(C)[C@@H]1CC[C@@H](C)C[C@H]1O,42,15803,http://msds.chem.ox.ac.uk/,academic website,4,42,44,2
27568,"2,4,5-Trichlorobiphenyl",C1=CC=C(C=C1)C2=CC(=C(C=C2Cl)Cl)Cl,78,25605,http://dx.doi.org/10.1016/j.chemosphere.2013.10.095,Abraham M.H. and Acree Jr. W.E. The solubility of liquid and solid compounds in dry octan-1-ol. Chemosphere (2013),4,76,78,2
15902,Methyl 3-nitrobenzoate,O=[N+]([O-])c1cc(ccc1)C(=O)OC,78,62472,http://msds.chem.ox.ac.uk/,academic website,4,78,80,2
13879,4-acetylbenzonitrile,O=C(C)c1ccc(C#N)cc1,58,66663,http://www.amazon.com/dp/B003XEQTLE,Aldrich Chemical Company; Aldrich Catalog-Handbook of Fine Chemicals; Milwaukee; WI; 1984.,4,57,59,2
13697,4-aminobenzyl_cyanide,Nc1ccc(CC#N)cc1,45,69446,http://www.amazon.com/dp/B003XEQTLE,Aldrich Chemical Company; Aldrich Catalog-Handbook of Fine Chemicals; Milwaukee; WI; 1984.,4,44,46,2
869,(S)-2-(6-methoxy-2-naphthyl)propionic acid,C[C@@H](c1ccc2cc(ccc2c1)OC)C(=O)O,155,137720,http://www.alfa.com/en/GP100W.pgm?DSSTK=L09855,Alfa Aesar,4,153,155,2
15054,1-Methoxy-4-[(1E)-prop-1-en-1-yl]benzene,COc1ccc(/C=C/C)cc1,21,553166,http://msds.chem.ox.ac.uk/,academic website,4,21,23,2
15716,Diethyl (2E)-but-2-enedioate,O=C(/C=C/C(=O)OCC)OCC,1,553702,http://msds.chem.ox.ac.uk/,academic website,4,0,2,2
15596,"Benzene-1,2,3-triol",Oc1cccc(O)c1O,132,13835557,http://msds.chem.ox.ac.uk/,academic website,4,132,134,2
5588,4-tert-butylphenol,CC(C)(C)c1ccc(cc1)O,99,13846663,http://www.alfa.com/en/GP100W.pgm?DSSTK=A15871,Alfa Aesar,4,98,100,2
15325,2-Phenoxyethanol,OCCOc1ccccc1,12,13848467,http://msds.chem.ox.ac.uk/,academic website,4,12,14,2
15920,Methyl salicylate,Oc1ccccc1C(=O)OC,-9,13848808,http://msds.chem.ox.ac.uk/,academic website,4,-9,-7,2
14835,(Bromomethyl)benzene,BrCc1ccccc1,-3,13851576,http://msds.chem.ox.ac.uk/,academic website,4,-4,-2,2
15312,2-Nitroaniline,O=[N+]([O-])c1ccccc1N,72,13853943,http://msds.chem.ox.ac.uk/,academic website,4,71,73,2
15007,1-Chloro-2-nitrobenzene,O=[N+]([O-])c1ccccc1Cl,32,13853953,http://msds.chem.ox.ac.uk/,academic website,4,32,34,2
15793,Ethyl 3-oxobutanoate,CC(=O)CC(=O)OCC,-43,13865426,http://msds.chem.ox.ac.uk/,academic website,4,-45,-43,2
15477,4-Methoxyaniline,Nc1ccc(OC)cc1,57,13869414,http://msds.chem.ox.ac.uk/,academic website,4,57,59,2
15181,"2,5-Dichloroaniline",Clc1ccc(Cl)c(N)c1,48,13869655,http://msds.chem.ox.ac.uk/,academic website,4,48,50,2
13758,p-anisaldehyde,COc1ccc(C=O)cc1,-1,21105937,http://www.amazon.com/dp/B003XEQTLE,Aldrich Chemical Company; Aldrich Catalog-Handbook of Fine Chemicals; Milwaukee; WI; 1984.,4,-1,1,2
15790,Ethyl 2-aminobenzoate,Nc1ccccc1C(=O)OCC,13,21106112,http://msds.chem.ox.ac.uk/,academic website,4,13,15,2
13891,trans-4-phenyl-3-buten-2-one,CC(=O)/C=C/c1ccccc1,41,21106584,http://www.amazon.com/dp/B003XEQTLE,Aldrich Chemical Company; Aldrich Catalog-Handbook of Fine Chemicals; Milwaukee; WI; 1984.,4,40,42,2
14838,(E)-Diphenyldiazene,N(=N/c1ccccc1)c2ccccc2,68.5,2185,http://msds.chem.ox.ac.uk/,academic website,5,67,69,2
8784,butalbital,CC(C)CC1(CC=C)C(=O)NC(=O)NC1=O,138,2387,http://dx.doi.org/10.1021/ci020280x,Bergstrom C. A. S.; Norinder U.; Luthman K.; Artursson P. Molecular Descriptors Influencing Melting Point and Their Role in Classification of Solid Drugs. J. Chem. Inf. Comput. Sci.; (Article); 2003; 43(4); 1177-1230,5,138,140,2
27715,5-Fluorouracil,C1=C(C(=NC(=N1)O)O)F,283,3268,http://dx.doi.org/10.1016/j.chemosphere.2013.10.095,Abraham M.H. and Acree Jr. W.E. The solubility of liquid and solid compounds in dry octan-1-ol. Chemosphere (2013),5,281,283,2
28452,Phenylbutazone,CCCCC1C(=O)N(N(C1=O)C2=CC=CC=C2)C3=CC=CC=C3,107,4617,http://dx.doi.org/10.1016/j.chemosphere.2013.10.095,Abraham M.H. and Acree Jr. W.E. The solubility of liquid and solid compounds in dry octan-1-ol. Chemosphere (2013),5,105,107,2
8881,pindolol,CC(C)NCC(O)COc1cccc2[nH]ccc12,170,4662,http://dx.doi.org/10.1021/ci020280x,Bergstrom C. A. S.; Norinder U.; Luthman K.; Artursson P. Molecular Descriptors Influencing Melting Point and Their Role in Classification of Solid Drugs. J. Chem. Inf. Comput. Sci.; (Article); 2003; 43(4); 1177-1327,5,169,171,2
28554,Sulfapyridine,C1=CC=NC(=C1)NS(=O)(=O)C2=CC=C(C=C2)N,190,5145,http://dx.doi.org/10.1016/j.chemosphere.2013.10.095,Abraham M.H. and Acree Jr. W.E. The solubility of liquid and solid compounds in dry octan-1-ol. Chemosphere (2013),5,190,192,2
28107,Fenuron,CN(C)C(=O)NC1=CC=CC=C1,132,7279,http://dx.doi.org/10.1016/j.chemosphere.2013.10.095,Abraham M.H. and Acree Jr. W.E. The solubility of liquid and solid compounds in dry octan-1-ol. Chemosphere (2013),5,132,134,2
15764,Dodec-1-ene,CCCCCCCCCCC=C,-35,7891,http://msds.chem.ox.ac.uk/,academic website,5,-37,-35,2
27532,2-Nitrobenzoic acid,C1=CC=C(C(=C1)C(=O)O)[N+](=O)[O-],146,10616,http://dx.doi.org/10.1016/j.chemosphere.2013.10.095,Abraham M.H. and Acree Jr. W.E. The solubility of liquid and solid compounds in dry octan-1-ol. Chemosphere (2013),5,146,148,2
14792,(2-Nitrophenyl)acetonitrile,O=[N+]([O-])c1ccccc1CC#N,84,11395,http://msds.chem.ox.ac.uk/,academic website,5,82,84,2
15731,Dimethyl (2E)-but-2-enedioate,COC(=O)/C=C/C(=O)OC,104,553171,http://msds.chem.ox.ac.uk/,academic website,5,102,104,2
1666,"2,5-dimethylphenol",Cc1ccc(c(c1)O)C,76,13839128,http://www.alfa.com/en/GP100W.pgm?DSSTK=A17755,Alfa Aesar,5,74,76,2
15623,Biphenyl-4-ol,Oc1ccc(cc1)c2ccccc2,167,13846658,http://msds.chem.ox.ac.uk/,academic website,5,165,167,2
28193,Indomethacin,CC1=C(C2=C(N1C(=O)C3=CC=C(C=C3)Cl)C=CC(=C2)OC)CC(=O)O,159,3584,http://dx.doi.org/10.1016/j.chemosphere.2013.10.095,Abraham M.H. and Acree Jr. W.E. The solubility of liquid and solid compounds in dry octan-1-ol. Chemosphere (2013),6,158,160,2
15349,"3,4-Dichlorophenol",Oc1cc(Cl)c(Cl)cc1,67,6988,http://msds.chem.ox.ac.uk/,academic website,6,66,68,2
15480,4-Methoxyphenol,Oc1ccc(OC)cc1,56,8665,http://msds.chem.ox.ac.uk/,academic website,6,55,57,2
27604,3-Bromobenzoic acid,C1=CC(=CC(=C1)Br)C(=O)O,157,10972,http://dx.doi.org/10.1016/j.chemosphere.2013.10.095,Abraham M.H. and Acree Jr. W.E. The solubility of liquid and solid compounds in dry octan-1-ol. Chemosphere (2013),6,155,157,2
28052,Diphenylamine,C1=CC=C(C=C1)NC2=CC=CC=C2,53,11003,http://dx.doi.org/10.1016/j.chemosphere.2013.10.095,Abraham M.H. and Acree Jr. W.E. The solubility of liquid and solid compounds in dry octan-1-ol. Chemosphere (2013),6,52,54,2
27475,"1,3,5-Tribromobenzene",C1=C(C=C(C=C1Br)Br)Br,122,11776,http://dx.doi.org/10.1016/j.chemosphere.2013.10.095,Abraham M.H. and Acree Jr. W.E. The solubility of liquid and solid compounds in dry octan-1-ol. Chemosphere (2013),6,122,124,2
14784,(2E)-3-Phenylacrylic acid,O=C(O)/C=C/c1ccccc1,133,392447,http://msds.chem.ox.ac.uk/,academic website,6,133,135,2
15373,3-Chlorophenol,Oc1cc(Cl)ccc1,33,13875432,http://msds.chem.ox.ac.uk/,academic website,6,32,34,2
28432,Phenobarbital,CCC1(C(=O)NC(=O)NC1=O)C2=CC=CC=C2,176,4599,http://dx.doi.org/10.1016/j.chemosphere.2013.10.095,Abraham M.H. and Acree Jr. W.E. The solubility of liquid and solid compounds in dry octan-1-ol. Chemosphere (2013),7,174,176,2
28515,Salicylamide,C1=CC=C(C(=C1)C(=O)N)O,142,4963,http://dx.doi.org/10.1016/j.chemosphere.2013.10.095,Abraham M.H. and Acree Jr. W.E. The solubility of liquid and solid compounds in dry octan-1-ol. Chemosphere (2013),8,140,142,2
27867,Biphenyl,C1=CC=C(C=C1)C2=CC=CC=C2,69,6828,http://dx.doi.org/10.1016/j.chemosphere.2013.10.095,Abraham M.H. and Acree Jr. W.E. The solubility of liquid and solid compounds in dry octan-1-ol. Chemosphere (2013),8,69,71,2
15318,2-Nitrophenol,O=[N+]([O-])c1ccccc1O,44,13837787,http://msds.chem.ox.ac.uk/,academic website,8,44,46,2
28427,Phenanthrene,C1=CC=C2C(=C1)C=CC3=CC=CC=C32,101,970,http://dx.doi.org/10.1016/j.chemosphere.2013.10.095,Abraham M.H. and Acree Jr. W.E. The solubility of liquid and solid compounds in dry octan-1-ol. Chemosphere (2013),9,99,101,2
209,1-eicosanol,CCCCCCCCCCCCCCCCCCCCO,64,11898,http://www.alfa.com/en/GP100W.pgm?DSSTK=L08807,Alfa Aesar,2,64,66.1,2.1
27896,camphoric acid,O=C(O)C1CCC(C(=O)O)(C)C1(C)C,187,20198,http://chemspider.com/20198,EPISuite-ChemSpider,3,187,189.1,2.1
675,"1,2-dibromobenzene",c1ccc(c(c1)Br)Br,5,13875212,http://www.alfa.com/en/GP100W.pgm?DSSTK=A14765,Alfa Aesar,3,5,7.1,2.1
14843,(Trifluoromethyl)benzene,FC(F)(F)c1ccccc1,-27,7090,http://msds.chem.ox.ac.uk/,academic website,3,-29.1,-27,2.1
15260,2-Furaldehyde,O=Cc1ccco1,-36,13863629,http://msds.chem.ox.ac.uk/,academic website,4,-38.1,-36,2.1
15850,Hexanoic acid,CCCCCC(=O)O,-3,8552,http://msds.chem.ox.ac.uk/,academic website,6,-4,-1.9,2.1
13605,1-nonene,CCCCCCCC=C,-81,29025,http://www.amazon.com/dp/B002IYRJWI,American Petroleum Institute. Research Project 44; Selected Values of Properties of Hydrocarbons and Related Compounds. Texas A & M University; College Station; TX; 1973.,3,-83.15,-81,2.15
7910,naphthalene-1-carboxamide,c1ccc2c(c1)cccc2C(=O)N,208,67788,http://www.alfa.com/en/GP100W.pgm?DSSTK=L08364,Alfa Aesar,2,205.8,208,2.2
738,"1,1-diphenylethylene",C=C(c1ccccc1)c2ccccc2,6,10287,http://www.alfa.com/en/GP100W.pgm?DSSTK=A14434,Alfa Aesar,3,6,8.2,2.2
13510,trans-1-phenyl-1-propene,CC=Cc1ccccc1,-29,221082,http://www.amazon.com/dp/B002IYRJWI,American Petroleum Institute. Research Project 44; Selected Values of Properties of Hydrocarbons and Related Compounds. Texas A & M University; College Station; TX; 1973.,3,-29.3,-27.1,2.2
15717,Diethyl (2Z)-but-2-enedioate,O=C(C=C/C(=O)OCC)OCC,-10,4436353,http://msds.chem.ox.ac.uk/,academic website,4,-11,-8.8,2.2
15123,"2,2'-[Oxybis(ethane-2,1-diyloxy)]diethanol",OCCOCCOCCOCCO,-6,7908,http://msds.chem.ox.ac.uk/,academic website,4,-6.2,-4,2.2
8706,tropolone,c1ccc(c(=O)cc1)O,53,10333,http://www.alfa.com/en/GP100W.pgm?DSSTK=A11299,Alfa Aesar,2,50.8,53,2.2
15810,Fluorobenzene,Fc1ccccc1,-40,9614,http://msds.chem.ox.ac.uk/,academic website,3,-42.2,-40,2.2
16059,Pentafluorophenol,Fc1c(F)c(F)c(F)c(O)c1F,35,12499,http://msds.chem.ox.ac.uk/,academic website,3,32.8,35,2.2
16015,Nonacosane,CCCCCCCCCCCCCCCCCCCCCCCCCCCCC,66,11903,http://msds.chem.ox.ac.uk/,academic website,2,63.7,66,2.3
13516,dimethyl_oxalate,O=C(OC)C(=O)OC,52,10649,http://www.amazon.com/dp/B003XEQTLE,Aldrich Chemical Company; Aldrich Catalog-Handbook of Fine Chemicals; Milwaukee; WI; 1984.,3,52,54.3,2.3
14325,"3,4-dinitrotoluene",O=[N+]([O-])c1cc(C)ccc1[N+]([O-])=O,56,11390,http://www.amazon.com/dp/B003XEQTLE,Aldrich Chemical Company; Aldrich Catalog-Handbook of Fine Chemicals; Milwaukee; WI; 1984.,3,56,58.3,2.3
4993,4'-chloropropiophenone,CCC(=O)c1ccc(cc1)Cl,35,21278,http://www.alfa.com/en/GP100W.pgm?DSSTK=A11633,Alfa Aesar,3,35,37.3,2.3