key,name,smiles,mpC,csid,link,source,count,min,max,range
27453,"1,2,4-Tribromobenzene",C1=CC(=C(C=C1Br)Br)Br,44,11507,http://dx.doi.org/10.1016/j.chemosphere.2013.10.095,Abraham M.H. and Acree Jr. W.E. The solubility of liquid and solid compounds in dry octan-1-ol. Chemosphere (2013),6,42,44.5,2.5
15451,4-Chlorobenzaldehyde,O=Cc1ccc(Cl)cc1,46,21106019,http://msds.chem.ox.ac.uk/,academic website,6,46,48.5,2.5
28623,Triphenylene,C1=CC=C2C(=C1)C3=CC=CC=C3C4=CC=CC=C24,197,8816,http://dx.doi.org/10.1016/j.chemosphere.2013.10.095,Abraham M.H. and Acree Jr. W.E. The solubility of liquid and solid compounds in dry octan-1-ol. Chemosphere (2013),7,196.5,199,2.5
28540,Sulfamerazine,CC1=NC(=NC=C1)NS(=O)(=O)C2=CC=C(C=C2)N,235,5134,http://dx.doi.org/10.1016/j.chemosphere.2013.10.095,Abraham M.H. and Acree Jr. W.E. The solubility of liquid and solid compounds in dry octan-1-ol. Chemosphere (2013),8,234,236.5,2.5
15779,"Ethane-1,2-diamine",NCCN,8.5,13835550,http://msds.chem.ox.ac.uk/,academic website,3,8.5,11.1,2.6
4144,3-nitrobenzotrifluoride,c1cc(cc(c1)[N+](=O)[O-])C(F)(F)F,-5,7108,http://www.alfa.com/en/GP100W.pgm?DSSTK=L05948,Alfa Aesar,2,-5,-2.4,2.6
28237,methadone,O=C(C(c1ccccc1)(c2ccccc2)C[C@@H](N(C)C)C)CC,98.85,559067,http://pubs.acs.org/doi/pdf/10.1021/jo01160a004,Journal of Organic Chemistry,3,98.85,101.5,2.65
15858,Hydroxy(diphenyl)acetic acid,OC(C(=O)O)(c1ccccc1)c2ccccc2,151.5,6220,http://msds.chem.ox.ac.uk/,academic website,6,148.85,151.5,2.65
27941,Coronene,C1=CC2=C3C4=C1C=CC5=C4C6=C(C=C5)C=CC7=C6C3=C(C=C2)C=C7,438,8761,http://dx.doi.org/10.1016/j.chemosphere.2013.10.095,Abraham M.H. and Acree Jr. W.E. The solubility of liquid and solid compounds in dry octan-1-ol. Chemosphere (2013),4,437.3,440,2.7
4828,4-bromostyrene,C=Cc1ccc(cc1)Br,5,15431,http://www.alfa.com/en/GP100W.pgm?DSSTK=A17896,Alfa Aesar,2,5,7.7,2.7
941,2-(2-naphthoxy)ethanol,c1ccc2cc(ccc2c1)OCCO,74,6864,http://www.alfa.com/en/GP100W.pgm?DSSTK=A11636,Alfa Aesar,2,74,76.7,2.7
158,1-indanol,c1ccc2c(c1)CCC2O,52,21394,http://www.alfa.com/en/GP100W.pgm?DSSTK=B24536,Alfa Aesar,2,52,54.8,2.8
14119,p-nitroacetophenone,O=[N+]([O-])c1ccc(cc1)C(C)=O,80,21106581,http://www.amazon.com/dp/B003XEQTLE,Aldrich Chemical Company; Aldrich Catalog-Handbook of Fine Chemicals; Milwaukee; WI; 1984.,3,79,81.8,2.8
15240,2-Chlorophenol,Oc1ccccc1Cl,7,13837686,http://msds.chem.ox.ac.uk/,academic website,4,7,9.8,2.8
8683,triphenylsilanol,c1ccc(cc1)[Si](c2ccccc2)(c3ccccc3)O,152,63119,http://www.alfa.com/en/GP100W.pgm?DSSTK=A19284,Alfa Aesar,2,152,154.8,2.8
15826,Heptan-1-ol,CCCCCCCO,-36,7837,http://msds.chem.ox.ac.uk/,academic website,5,-36,-33.2,2.8
15323,2-Oxopropanoic acid,CC(=O)C(=O)O,12,1031,http://msds.chem.ox.ac.uk/,academic website,9,11,13.8,2.8
6755,decanonitrile,CCCCCCCCCC#N,-15,67360,http://www.alfa.com/en/GP100W.pgm?DSSTK=A18798,Alfa Aesar,3,-17.9,-15,2.9
28186,Ibuprofen,CC(C)CC1=CC=C(C=C1)C(C)C(=O)O,76,3544,http://dx.doi.org/10.1016/j.chemosphere.2013.10.095,Abraham M.H. and Acree Jr. W.E. The solubility of liquid and solid compounds in dry octan-1-ol. Chemosphere (2013),9,74.6,77.5,2.9
27486,"1,4-Dichlorobenzene",C1=CC(=CC=C1Cl)Cl,55,13866817,http://dx.doi.org/10.1016/j.chemosphere.2013.10.095,Abraham M.H. and Acree Jr. W.E. The solubility of liquid and solid compounds in dry octan-1-ol. Chemosphere (2013),9,52.09,55,2.91
6735,cyclopentylamine,C1CCC(C1)N,-85,2803,http://www.alfa.com/en/GP100W.pgm?DSSTK=L01966,Alfa Aesar,3,-85.7,-82.7,3
4103,3-methylcatechol,Cc1cccc(c1O)O,65,333,http://www.alfa.com/en/GP100W.pgm?DSSTK=A12324,Alfa Aesar,2,65,68,3
5516,4-n-nonylphenol,CCCCCCCCCc1ccc(cc1)O,45,1688,http://www.alfa.com/en/GP100W.pgm?DSSTK=A15609,Alfa Aesar,2,42,45,3
2057,2-aminothiazole,c1csc(n1)N,90,2070,http://www.alfa.com/en/GP100W.pgm?DSSTK=A12026,Alfa Aesar,2,90,93,3
16557,Hydroxyurea,NC(=O)NO,144,3530,http://www.drugbank.ca/drugs/DB01005,DrugBank,2,141,144,3
1560,"2,4-thiazolidinedione",C1C(=O)NC(=O)S1,125,5242,http://www.alfa.com/en/GP100W.pgm?DSSTK=A13496,Alfa Aesar,2,125,128,3
7440,mercaptosuccinic acid,C(C(C(=O)O)S)C(=O)O,152,6032,http://www.alfa.com/en/GP100W.pgm?DSSTK=B23301,Alfa Aesar,2,149,152,3
7880,"N,N'-diphenyl-p-phenylenediamine",c1ccc(cc1)Nc2ccc(cc2)Nc3ccccc3,147,6080,http://www.alfa.com/en/GP100W.pgm?DSSTK=B23713,Alfa Aesar,2,144,147,3
2440,2-chloroacetamide,C(C(=O)N)Cl,118,6332,http://www.alfa.com/en/GP100W.pgm?DSSTK=A15238,Alfa Aesar,2,118,121,3
6572,bisphenol a,CC(C)(c1ccc(cc1)O)c2ccc(cc2)O,156,6371,http://www.alfa.com/en/GP100W.pgm?DSSTK=A10324,Alfa Aesar,2,153,156,3
478,"1,4-dihydroxyanthraquinone",c1ccc2c(c1)C(=O)c3c(ccc(c3C2=O)O)O,197,6433,http://www.alfa.com/en/GP100W.pgm?DSSTK=A11010,Alfa Aesar,2,197,200,3
6307,acenaphthenequinone,c1cc2cccc3c2c(c1)C(=O)C3=O,258,6468,http://www.alfa.com/en/GP100W.pgm?DSSTK=B23466,Alfa Aesar,2,258,261,3
3408,"3,5-dibromosalicylaldehyde",c1c(cc(c(c1C=O)O)Br)Br,83,6757,http://www.alfa.com/en/GP100W.pgm?DSSTK=A13729,Alfa Aesar,2,83,86,3
15037,"1H-Indole-2,3-dione",O=C1c2ccccc2NC1=O,200,6787,http://msds.chem.ox.ac.uk/,academic website,2,200,203,3
925,"(1,2-dibromoethyl)benzene",c1ccc(cc1)C(CBr)Br,72,6878,http://www.alfa.com/en/GP100W.pgm?DSSTK=B24990,Alfa Aesar,2,72,75,3
14092,benzoylacetone,O=C(CC(C)=O)c1ccccc1,59,6898,http://www.amazon.com/dp/B003XEQTLE,Aldrich Chemical Company; Aldrich Catalog-Handbook of Fine Chemicals; Milwaukee; WI; 1984.,2,56,59,3
2927,2-methylindole,Cc1cc2ccccc2[nH]1,58,6954,http://www.alfa.com/en/GP100W.pgm?DSSTK=A10764,Alfa Aesar,2,58,61,3
5850,5-chloro-2-methylaniline,Cc1ccc(cc1N)Cl,23,6990,http://www.alfa.com/en/GP100W.pgm?DSSTK=B21392,Alfa Aesar,2,23,26,3
5261,4-iodobenzenesulfonyl chloride,c1cc(ccc1S(=O)(=O)Cl)I,82,7121,http://www.alfa.com/en/GP100W.pgm?DSSTK=B24416,Alfa Aesar,2,82,85,3
8083,N-isopropyl-n'-phenyl-p-phenylenediamine,CC(C)Nc1ccc(cc1)Nc2ccccc2,77,7292,http://www.alfa.com/en/GP100W.pgm?DSSTK=B25378,Alfa Aesar,2,74,77,3
1656,"2,5-dimethyl-2,5-hexanediol",CC(C)(CCC(C)(C)O)O,89,7740,http://www.alfa.com/en/GP100W.pgm?DSSTK=A11984,Alfa Aesar,2,89,92,3
14671,diethyl_sebacate,O=C(CCCCCCCCC(=O)OCC)OCC,2,7758,http://www.amazon.com/dp/B003XEQTLE,Aldrich Chemical Company; Aldrich Catalog-Handbook of Fine Chemicals; Milwaukee; WI; 1984.,2,2,5,3
4145,3-nitrobenzoyl chloride,c1cc(cc(c1)[N+](=O)[O-])C(=O)Cl,33,8181,http://www.alfa.com/en/GP100W.pgm?DSSTK=A10579,Alfa Aesar,2,33,36,3
8304,p-quaterphenyl,c1ccc(cc1)c2ccc(cc2)c3ccc(cc3)c4ccccc4,317,8353,http://www.alfa.com/en/GP100W.pgm?DSSTK=A17788,Alfa Aesar,2,317,320,3
15968,"N'',N'''-Diphenylcarbonohydrazide",O=C(NNc1ccccc1)NNc2ccccc2,173,8459,http://msds.chem.ox.ac.uk/,academic website,2,170,173,3
5170,4-fluorophenylacetic acid,c1cc(ccc1CC(=O)O)F,83,9454,http://www.alfa.com/en/GP100W.pgm?DSSTK=A10646,Alfa Aesar,2,83,86,3
5914,5-fluoro-2-nitrophenol,c1cc(c(cc1F)O)[N+](=O)[O-],33,9549,http://www.alfa.com/en/GP100W.pgm?DSSTK=A12568,Alfa Aesar,2,33,36,3
5407,4-methylcatechol,Cc1ccc(c(c1)O)O,68,9564,http://www.alfa.com/en/GP100W.pgm?DSSTK=L04495,Alfa Aesar,2,65,68,3
14952,"1,3-Dioxane",C1CCOCO1,-42,10018,http://msds.chem.ox.ac.uk/,academic website,2,-45,-42,3
7235,flavone,c1ccc(cc1)c2cc(=O)c3ccccc3o2,97,10230,http://www.alfa.com/en/GP100W.pgm?DSSTK=A13627,Alfa Aesar,2,97,100,3
8221,pentachloroaniline,c1(c(c(c(c(c1Cl)Cl)Cl)Cl)Cl)N,232,10243,http://www.alfa.com/en/GP100W.pgm?DSSTK=B20327,Alfa Aesar,2,232,235,3
1713,"2,6-dibromoquinone-4-chloroimide",C1=C(C(=O)C(=CC1=NCl)Br)Br,80,10378,http://www.alfa.com/en/GP100W.pgm?DSSTK=A12207,Alfa Aesar,2,80,83,3
6065,6-aminoquinoline,c1cc2cc(ccc2nc1)N,117,10895,http://www.alfa.com/en/GP100W.pgm?DSSTK=L13819,Alfa Aesar,2,114,117,3
3831,3'-chloroacetanilide,CC(=O)Nc1cccc(c1)Cl,77,11009,http://www.alfa.com/en/GP100W.pgm?DSSTK=A14921,Alfa Aesar,2,77,80,3
441,"1,5-dinitronaphthalene",c1cc2c(cccc2[N+](=O)[O-])c(c1)[N+](=O)[O-],216,11310,http://www.alfa.com/en/GP100W.pgm?DSSTK=A13869,Alfa Aesar,2,216,219,3
8094,N-methylbenzamide,CNC(=O)c1ccccc1,79,11460,http://www.alfa.com/en/GP100W.pgm?DSSTK=A18057,Alfa Aesar,2,79,82,3
8716,valeramide,CCCCC(=O)N,103,11795,http://www.alfa.com/en/GP100W.pgm?DSSTK=L14601,Alfa Aesar,2,103,106,3
67,1-phenylpyrrole,c1ccc(cc1)n2cccc2,59,11970,http://www.alfa.com/en/GP100W.pgm?DSSTK=L07973,Alfa Aesar,2,59,62,3
8161,N-tetracosane,CCCCCCCCCCCCCCCCCCCCCCCC,51,12072,http://www.alfa.com/en/GP100W.pgm?DSSTK=42462,Alfa Aesar,2,51,54,3
683,"1,2-cyclohexanedione",C1CCC(=O)C(=O)C1,37,12465,http://www.alfa.com/en/GP100W.pgm?DSSTK=A14401,Alfa Aesar,2,37,40,3
8664,tri-n-butylphosphine oxide,CCCCP(=O)(CCCC)CCCC,67,12586,http://www.alfa.com/en/GP100W.pgm?DSSTK=A13629,Alfa Aesar,2,64,67,3
1824,"2,6-dimethylquinoline",Cc1ccc2c(c1)ccc(n2)C,57,12840,http://www.alfa.com/en/GP100W.pgm?DSSTK=B23934,Alfa Aesar,2,57,60,3
5961,5-methoxyindole,COc1ccc2c(c1)cc[nH]2,54,13272,http://www.alfa.com/en/GP100W.pgm?DSSTK=B25290,Alfa Aesar,2,54,57,3
6315,acetic hydrazide,CC(=O)NN,64,13420,http://www.alfa.com/en/GP100W.pgm?DSSTK=A10969,Alfa Aesar,2,64,67,3
2529,2-decanol,CCCCCCCCC(C)O,-5,13616,http://www.alfa.com/en/GP100W.pgm?DSSTK=L05688,Alfa Aesar,2,-5,-2,3
7693,methyl phenyl sulfoxide,CS(=O)c1ccccc1,29,13860,http://www.alfa.com/en/GP100W.pgm?DSSTK=A15009,Alfa Aesar,2,29,32,3
6786,dibenzosuberone,c1ccc2c(c1)CCc3ccccc3C2=O,33,13927,http://www.alfa.com/en/GP100W.pgm?DSSTK=A18405,Alfa Aesar,2,30,33,3
5725,5-benzyloxyindole,c1ccc(cc1)COc2ccc3c(c2)cc[nH]3,99,13959,http://www.alfa.com/en/GP100W.pgm?DSSTK=B25143,Alfa Aesar,2,99,102,3
2722,2'-hydroxy-5'-methylacetophenone,Cc1ccc(c(c1)C(=O)C)O,47,14340,http://www.alfa.com/en/GP100W.pgm?DSSTK=A13136,Alfa Aesar,2,47,50,3
519,"1,4-bis(5-phenyloxazol-2-yl)benzene",c1ccc(cc1)c2cnc(o2)c3ccc(cc3)c4ncc(o4)c5ccccc5,242,14960,http://www.alfa.com/en/GP100W.pgm?DSSTK=A12321,Alfa Aesar,2,242,245,3
5599,4-vinylbiphenyl,C=Cc1ccc(cc1)c2ccccc2,116,15998,http://www.alfa.com/en/GP100W.pgm?DSSTK=L11869,Alfa Aesar,2,116,119,3
3421,"3,5-dichloro-4-hydroxybenzoic acid",c1c(cc(c(c1Cl)O)Cl)C(=O)O,268,17704,http://www.alfa.com/en/GP100W.pgm?DSSTK=A12923,Alfa Aesar,2,265,268,3
14564,"6-chloro-2,4-dinitroaniline",Nc1c(cc(cc1Cl)[N+]([O-])=O)[N+]([O-])=O,157,17987,http://www.amazon.com/dp/B003XEQTLE,Aldrich Chemical Company; Aldrich Catalog-Handbook of Fine Chemicals; Milwaukee; WI; 1984.,2,154,157,3
103,1-naphthalenemethanol,c1ccc2c(c1)cccc2CO,61,19669,http://www.alfa.com/en/GP100W.pgm?DSSTK=L01347,Alfa Aesar,2,61,64,3
8047,N-ethylphthalimide,CCN1C(=O)c2ccccc2C1=O,76,19862,http://www.alfa.com/en/GP100W.pgm?DSSTK=A16014,Alfa Aesar,2,76,79,3
4133,3'-nitroacetanilide,CC(=O)Nc1cccc(c1)[N+](=O)[O-],152,28947,http://www.alfa.com/en/GP100W.pgm?DSSTK=B22062,Alfa Aesar,2,152,155,3
16184,Trioctylphosphine oxide,CCCCCCCCP(=O)(CCCCCCCC)CCCCCCCC,52,59020,http://msds.chem.ox.ac.uk/,academic website,2,52,55,3
2554,2-ethoxyphenol,CCOc1ccccc1O,26,60121,http://www.alfa.com/en/GP100W.pgm?DSSTK=B24755,Alfa Aesar,2,26,29,3
5306,4-methoxy-2-nitroaniline,COc1ccc(c(c1)[N+](=O)[O-])N,127,60158,http://www.alfa.com/en/GP100W.pgm?DSSTK=A11673,Alfa Aesar,2,124,127,3
3966,3-fluorophenylacetic acid,c1cc(cc(c1)F)CC(=O)O,46,60937,http://www.alfa.com/en/GP100W.pgm?DSSTK=A15635,Alfa Aesar,2,43,46,3
3348,"3,4-dimethoxytoluene",Cc1ccc(c(c1)OC)OC,27,61434,http://www.alfa.com/en/GP100W.pgm?DSSTK=A15558,Alfa Aesar,2,24,27,3
6303,9-octadecynoic acid,CCCCCCCCC#CCCCCCCCC(=O)O,45,61475,http://www.alfa.com/en/GP100W.pgm?DSSTK=L01294,Alfa Aesar,2,45,48,3
2255,"2-carboxy-3,4-dimethoxybenzaldehyde",COc1ccc(c(c1OC)C(=O)O)C=O,147,61517,http://www.alfa.com/en/GP100W.pgm?DSSTK=L16263,Alfa Aesar,2,147,150,3
8089,N-methyl-2-nitroaniline,CNc1ccccc1[N+](=O)[O-],35,62372,http://www.alfa.com/en/GP100W.pgm?DSSTK=A19538,Alfa Aesar,2,35,38,3
407,"1,8-octanediol",C(CCCCO)CCCO,60,62628,http://www.alfa.com/en/GP100W.pgm?DSSTK=A15402,Alfa Aesar,2,60,63,3
1213,"2,3,5,6-tetrafluorophenylhydrazine",c1c(c(c(c(c1F)F)NN)F)F,89,62756,http://www.alfa.com/en/GP100W.pgm?DSSTK=B22600,Alfa Aesar,2,89,92,3
1716,"2,6-dichloro-3-cyano-4-methylpyridine",Cc1cc(nc(c1C#N)Cl)Cl,110,63319,http://www.alfa.com/en/GP100W.pgm?DSSTK=B20346,Alfa Aesar,2,110,113,3
924,2-(bromomethyl)naphthalene,c1ccc2cc(ccc2c1)CBr,53,63503,http://www.alfa.com/en/GP100W.pgm?DSSTK=B24568,Alfa Aesar,2,53,56,3
1676,"2,5-diphenylfuran",c1ccc(cc1)c2ccc(o2)c3ccccc3,88,63567,http://www.alfa.com/en/GP100W.pgm?DSSTK=A13424,Alfa Aesar,2,88,91,3
3039,2-phenylquinoline,c1ccc(cc1)c2ccc3ccccc3n2,83,64618,http://www.alfa.com/en/GP100W.pgm?DSSTK=H31920,Alfa Aesar,2,83,86,3
4533,4-acetylphenoxyacetic acid,CC(=O)c1ccc(cc1)OCC(=O)O,173,67230,http://www.alfa.com/en/GP100W.pgm?DSSTK=L00426,Alfa Aesar,2,173,176,3
5498,4-nitrophenyl isothiocyanate,c1cc(ccc1N=C=S)[N+](=O)[O-],108,67597,http://www.alfa.com/en/GP100W.pgm?DSSTK=L11042,Alfa Aesar,2,108,111,3
1624,"2,5-difluorobenzoic acid",c1cc(c(cc1F)C(=O)O)F,130,68816,http://www.alfa.com/en/GP100W.pgm?DSSTK=A10503,Alfa Aesar,2,130,133,3
5021,4-cyanobenzamide,c1cc(ccc1C#N)C(=O)N,227,68899,http://www.alfa.com/en/GP100W.pgm?DSSTK=B25600,Alfa Aesar,2,224,227,3
1076,2-(trifluoromethyl)phenylacetonitrile,c1ccc(c(c1)CC#N)C(F)(F)F,30,68907,http://www.alfa.com/en/GP100W.pgm?DSSTK=B23267,Alfa Aesar,2,30,33,3
6495,benzyl phenyl sulfone,c1ccc(cc1)CS(=O)(=O)c2ccccc2,149,69027,http://www.alfa.com/en/GP100W.pgm?DSSTK=L04201,Alfa Aesar,2,146,149,3
14655,"2,5-dibromoaniline",Brc1ccc(Br)c(N)c1,51,69628,http://www.amazon.com/dp/B003XEQTLE,Aldrich Chemical Company; Aldrich Catalog-Handbook of Fine Chemicals; Milwaukee; WI; 1984.,2,51,54,3
6584,bromopentamethylbenzene,Cc1c(c(c(c(c1C)C)Br)C)C,162,71166,http://www.alfa.com/en/GP100W.pgm?DSSTK=L02451,Alfa Aesar,2,162,165,3
8380,quinoline-2-carboxaldehyde,c1ccc2c(c1)ccc(n2)C=O,68,71926,http://www.alfa.com/en/GP100W.pgm?DSSTK=L20202,Alfa Aesar,2,68,71,3
1805,"2,6-dimethoxynaphthalene",COc1ccc2cc(ccc2c1)OC,153,71934,http://www.alfa.com/en/GP100W.pgm?DSSTK=H28366,Alfa Aesar,2,150,153,3
12747,Diphenylpropionic acid,O=C(O)C(C)(c1ccccc1)c1ccccc1,173,71976,http://dx.doi.org/10.1021/ci0500132,Karthikeyan M.; Glen R.C.; Bender A. General melting point prediction based on a diverse compound dataset and artificial neural networks. J. Chem. Inf. Model.; 2005; 45(3); 581-4329,2,173,176,3
7079,ethyl 3-amino-1h-pyrazole-4-carboxylate,CCOC(=O)c1c[nH]nc1N,106,73512,http://www.alfa.com/en/GP100W.pgm?DSSTK=A10882,Alfa Aesar,2,103,106,3
14638,2-hexadecanol,CC(O)CCCCCCCCCCCCCC,47,77368,http://www.amazon.com/dp/B003XEQTLE,Aldrich Chemical Company; Aldrich Catalog-Handbook of Fine Chemicals; Milwaukee; WI; 1984.,2,44,47,3
2541,2-ethoxy-1-naphthaldehyde,CCOc1ccc2ccccc2c1C=O,112,79481,http://www.alfa.com/en/GP100W.pgm?DSSTK=B25306,Alfa Aesar,2,112,115,3
8650,trimethylacetylacetonitrile,CC(C)(C)C(=O)CC#N,68,97904,http://www.alfa.com/en/GP100W.pgm?DSSTK=A16309,Alfa Aesar,2,68,71,3
15201,"2,6-Dimethylmorpholine",CC1CNCC(C)O1,-85,99508,http://msds.chem.ox.ac.uk/,academic website,2,-88,-85,3
14264,o-cyanobiphenyl,N#Cc2ccccc2c1ccccc1,38,124512,http://de.wikipedia.org/wiki/Beilsteins_Handbuch_der_Organischen_Chemie,Beilstein F. K.; Beilsteins Handbuch der Organischen Chemie. Springer; Berlin; 1972.,2,38,41,3
6798,dibenzyl phthalate,c1ccc(cc1)COC(=O)c2ccccc2C(=O)OCc3ccccc3,41,191496,http://www.alfa.com/en/GP100W.pgm?DSSTK=L04985,Alfa Aesar,2,41,44,3
6649,cholic acid,C[C@H](CCC(=O)O)[C@H]1CC[C@@H]2[C@@]1([C@H](C[C@H]3[C@H]2[C@@H](C[C@H]4[C@@]3(CC[C@H](C4)O)C)O)O)C,201,192176,http://www.alfa.com/en/GP100W.pgm?DSSTK=A11257,Alfa Aesar,2,198,201,3
8226,pentadecanolide,C1CCCCCCCOC(=O)CCCCCC1,35,205386,http://www.alfa.com/en/GP100W.pgm?DSSTK=A11341,Alfa Aesar,2,32,35,3
14855,"1-(3,5-Difluoro-4-hydroxyphenyl)propan-1-one",Fc1cc(cc(F)c1O)C(=O)CC,127,453123,http://msds.chem.ox.ac.uk/,academic website,2,127,130,3
4396,"4,4'-diacetoxybiphenyl",CC(=O)Oc1ccc(cc1)c2ccc(cc2)OC(=O)C,164,525308,http://www.alfa.com/en/GP100W.pgm?DSSTK=B21403,Alfa Aesar,2,161,164,3
1907,"2-amino-3,6-dichlorobenzoic acid",c1cc(c(c(c1Cl)C(=O)O)N)Cl,152,525531,http://www.alfa.com/en/GP100W.pgm?DSSTK=L12850,Alfa Aesar,2,152,155,3
6663,"cis-2-butene-1,4-diol",C(/C=CCO)O,7,558888,http://www.alfa.com/en/GP100W.pgm?DSSTK=A19182,Alfa Aesar,2,4,7,3
7599,methyl 4-chloro-3-nitrobenzoate,COC(=O)c1ccc(c(c1)[N+](=O)[O-])Cl,80,642951,http://www.alfa.com/en/GP100W.pgm?DSSTK=L07407,Alfa Aesar,2,80,83,3
8564,trans-2-nitrocinnamic acid,c1ccc(c(c1)/C=C/C(=O)O)[N+](=O)[O-],247,643069,http://www.alfa.com/en/GP100W.pgm?DSSTK=A13171,Alfa Aesar,2,244,247,3
3097,3-(2-furyl)acrolein,c1cc(oc1)/C=C/C=O,51,1266397,http://www.alfa.com/en/GP100W.pgm?DSSTK=A13042,Alfa Aesar,2,51,54,3
8588,trans-cinnamonitrile,c1ccc(cc1)/C=C/C#N,19,1267328,http://www.alfa.com/en/GP100W.pgm?DSSTK=B25503,Alfa Aesar,2,19,22,3
2796,"2-mercapto-5-methyl-1,3,4-thiadiazole",Cc1nnc(s1)S,184,1414905,http://www.alfa.com/en/GP100W.pgm?DSSTK=B21355,Alfa Aesar,2,184,187,3
25436,sulfathiourea,Nc1ccc(cc1)S(=O)(=O)NC(N)=S,182,2272143,http://www.srcinc.com/what-we-do/product.aspx?id=133,PHYSPROP,2,179,182,3
4564,4-amino-2-nitrophenol,c1cc(c(cc1N)[N+](=O)[O-])O,129,2661194,http://www.alfa.com/en/GP100W.pgm?DSSTK=H27694,Alfa Aesar,2,126,129,3
2977,2-nitrobenzhydrazide,c1ccc(c(c1)C(=O)NN)[N+](=O)[O-],121,3009396,http://www.alfa.com/en/GP100W.pgm?DSSTK=B21330,Alfa Aesar,2,121,124,3
14779,"(2E)-2-(Hydroxyimino)-1,2-diphenylethanol",OC(C(=NO)c1ccccc1)c2ccccc2,154,4510333,http://msds.chem.ox.ac.uk/,academic website,2,151,154,3
4975,4'-chlorochalcone,c1ccc(cc1)/C=C/C(=O)c2ccc(cc2)Cl,99,4526147,http://www.alfa.com/en/GP100W.pgm?DSSTK=A13772,Alfa Aesar,2,96,99,3
7420,L-m-tyrosine,c1cc(cc(c1)O)C[C@@H](C(=O)O)N,265,5323512,http://www.alfa.com/en/GP100W.pgm?DSSTK=H27224,Alfa Aesar,2,265,268,3
5396,4'-methylacetanilide,Cc1ccc(cc1)NC(=O)C,149,10243171,http://www.alfa.com/en/GP100W.pgm?DSSTK=A13721,Alfa Aesar,2,149,152,3
8610,trichloroacrylic acid,C(=C(Cl)Cl)(C(=O)O)Cl,73,10289059,http://www.alfa.com/en/GP100W.pgm?DSSTK=A12299,Alfa Aesar,2,73,76,3
6631,chlorodifluoroacetic acid,C(=O)(C(F)(F)Cl)O,22,10800462,http://www.alfa.com/en/GP100W.pgm?DSSTK=A14369,Alfa Aesar,2,22,25,3
8433,succinyl chloride,C(CC(=O)Cl)C(=O)Cl,17,13867055,http://www.alfa.com/en/GP100W.pgm?DSSTK=A18389,Alfa Aesar,2,17,20,3
9031,(E)-1-(4-Methoxyphenyl)-2-phenyldiazene,O(C)c1ccc(N=Nc2ccccc2)cc1,53,21169898,http://dx.doi.org/10.1021/ci0500132,Karthikeyan M.; Glen R.C.; Bender A. General melting point prediction based on a diverse compound dataset and artificial neural networks. J. Chem. Inf. Model.; 2005; 45(3); 581-606,2,53,56,3
5245,4-hydroxyphenylacetic acid,c1cc(ccc1CC(=O)O)O,149,124,http://www.alfa.com/en/GP100W.pgm?DSSTK=A15018,Alfa Aesar,3,149,152,3
15819,Glycol acid,O=C(O)CO,80,737,http://msds.chem.ox.ac.uk/,academic website,3,77,80,3
16117,Stearic acid,O=C(O)CCCCCCCCCCCCCCCCC,68,5091,http://msds.chem.ox.ac.uk/,academic website,3,68,71,3
14885,"1,1,1-Trichloroethane",CC(Cl)(Cl)Cl,-33,6042,http://msds.chem.ox.ac.uk/,academic website,3,-33,-30,3
15865,Iodoform,IC(I)I,121.5,6134,http://msds.chem.ox.ac.uk/,academic website,3,119,122,3
8647,trimethylacetic acid,CC(C)(C)C(=O)O,33,6177,http://www.alfa.com/en/GP100W.pgm?DSSTK=A10776,Alfa Aesar,3,33,36,3
15538,7H-Benzo[de]anthracen-7-one,O=C3c4ccccc4c2cccc1cccc3c12,170,6442,http://msds.chem.ox.ac.uk/,academic website,3,170,173,3
14200,4-chloro-2-nitrotoluene,Cc1ccc(Cl)cc1[N+]([O-])=O,39,6709,http://www.amazon.com/dp/B003XEQTLE,Aldrich Chemical Company; Aldrich Catalog-Handbook of Fine Chemicals; Milwaukee; WI; 1984.,3,36,39,3
15172,"2,4-Dimethyl-1-nitrobenzene",Cc1cc(C)ccc1[N+](=O)[O-],7,6725,http://msds.chem.ox.ac.uk/,academic website,3,6,9,3
14496,chlorodiphenylmethane,ClC(c1ccccc1)c2ccccc2,16,6768,http://www.amazon.com/dp/B003XEQTLE,Aldrich Chemical Company; Aldrich Catalog-Handbook of Fine Chemicals; Milwaukee; WI; 1984.,3,16,19,3
15034,1H-Benzotriazole,c1cccc2nnnc12,97,6950,http://msds.chem.ox.ac.uk/,academic website,3,97,100,3
15372,3-Chloro-4-methylaniline,Nc1cc(Cl)c(C)cc1,26,6985,http://msds.chem.ox.ac.uk/,academic website,3,23,26,3