key,name,smiles,mpC,csid,link,source,count,min,max,range
27661,4-Bromoaniline,C1=CC(=CC=C1N)Br,66,7519,http://dx.doi.org/10.1016/j.chemosphere.2013.10.095,Abraham M.H. and Acree Jr. W.E. The solubility of liquid and solid compounds in dry octan-1-ol. Chemosphere (2013),5,63,66.4,3.4
17148,glutethimide,CCC1(CCC(=O)NC1=O)c2ccccc2,87.5,3367,http://dx.doi.org/10.1021/ci700307p,Hughes LD; Palmer DS; Nigsch F and Mitchell JBO. 2008 Why are some properties more difficult to predict than others? A study of QSPR models of solubility; melting point and LogP. J. Chem. Inf. Model. 2008. 48 (1). pp 220?295,2,84,87.5,3.5
8132,N-phenylanthranilic acid,c1ccc(cc1)Nc2ccccc2C(=O)O,187,4233,http://www.alfa.com/en/GP100W.pgm?DSSTK=A14340,Alfa Aesar,2,183.5,187,3.5
15986,N-Cyclohexyl-4-methylbenzenesulfonamide,O=S(=O)(NC1CCCCC1)c2ccc(C)cc2,84.5,6381,http://msds.chem.ox.ac.uk/,academic website,2,84.5,88,3.5
6875,diisobutylamine,CC(C)CNCC(C)C,-77,7794,http://www.alfa.com/en/GP100W.pgm?DSSTK=L15495,Alfa Aesar,2,-77,-73.5,3.5
15735,Dimethyl ether,COC,-138,7956,http://msds.chem.ox.ac.uk/,academic website,2,-141.5,-138,3.5
3439,"3,5-dichlorosalicylic acid",c1c(cc(c(c1C(=O)O)O)Cl)Cl,224,9073,http://www.alfa.com/en/GP100W.pgm?DSSTK=B23641,Alfa Aesar,2,220.5,224,3.5
5051,4-dimethylaminobenzophenone,CN(C)c1ccc(cc1)C(=O)c2ccccc2,89,10284,http://www.alfa.com/en/GP100W.pgm?DSSTK=B20389,Alfa Aesar,2,89,92.5,3.5
2705,2'-hydroxy-4'-methoxyacetophenone,CC(=O)c1ccc(cc1O)OC,49,10621,http://www.alfa.com/en/GP100W.pgm?DSSTK=B22173,Alfa Aesar,2,49,52.5,3.5
4538,"4-amino-1,2,4-triazole",c1nncn1N,86,10951,http://www.alfa.com/en/GP100W.pgm?DSSTK=A17716,Alfa Aesar,2,82.5,86,3.5
16007,Nitrosobenzene,O=Nc1ccccc1,65,10989,http://msds.chem.ox.ac.uk/,academic website,2,65,68.5,3.5
2743,2-hydroxyisobutyric acid,CC(C)(C(=O)O)O,79,11181,http://www.alfa.com/en/GP100W.pgm?DSSTK=A13146,Alfa Aesar,2,79,82.5,3.5
7873,"N,N-dimethylurea",CN(C)C(=O)N,180,11244,http://www.alfa.com/en/GP100W.pgm?DSSTK=L05065,Alfa Aesar,2,180,183.5,3.5
8368,pyrrole-2-carboxaldehyde,c1cc([nH]c1)C=O,43,13254,http://www.alfa.com/en/GP100W.pgm?DSSTK=A12838,Alfa Aesar,2,43,46.5,3.5
14930,"1,3,5-Triallyl-1,3,5-triazinane-2,4,6-trione",C=CCN1C(=O)N(CC=C)C(=O)N(CC=C)C1=O,24,13329,http://msds.chem.ox.ac.uk/,academic website,2,20.5,24,3.5
3816,3-chloro-4-methylphenol,Cc1ccc(cc1Cl)O,52,14163,http://www.alfa.com/en/GP100W.pgm?DSSTK=H27385,Alfa Aesar,2,52,55.5,3.5
8275,phenylphosphonic acid,c1ccc(cc1)P(=O)(O)O,161,14560,http://www.alfa.com/en/GP100W.pgm?DSSTK=B22939,Alfa Aesar,2,161,164.5,3.5
14,1-phenylcyclohexanol,c1ccc(cc1)C2(CCCCC2)O,60,14582,http://www.alfa.com/en/GP100W.pgm?DSSTK=B20877,Alfa Aesar,2,60,63.5,3.5
7720,methylenediphosphonic acid,C(P(=O)(O)O)P(=O)(O)O,203,15308,http://www.alfa.com/en/GP100W.pgm?DSSTK=30279,Alfa Aesar,2,199.5,203,3.5
14530,tetradecyl_aldehyde,CCCCCCCCCCCCCC=O,24,29031,http://www.amazon.com/dp/B003XEQTLE,Aldrich Chemical Company; Aldrich Catalog-Handbook of Fine Chemicals; Milwaukee; WI; 1984.,2,20.5,24,3.5
14967,"1,4-Diisocyanatobenzene",O=C=Nc1ccc(cc1)N=C=O,94,54970,http://msds.chem.ox.ac.uk/,academic website,2,94,97.5,3.5
8117,N-octyl gallate,CCCCCCCCOC(=O)c1cc(c(c(c1)O)O)O,99,55194,http://www.alfa.com/en/GP100W.pgm?DSSTK=L06081,Alfa Aesar,2,99,102.5,3.5
8101,N-methylformanilide,CN(C=O)c1ccccc1,11,60103,http://www.alfa.com/en/GP100W.pgm?DSSTK=A11829,Alfa Aesar,2,11,14.5,3.5
5058,4-ethoxy-3-methoxybenzaldehyde,CCOc1ccc(cc1OC)C=O,61,60464,http://www.alfa.com/en/GP100W.pgm?DSSTK=A10897,Alfa Aesar,2,61,64.5,3.5
417,"1,8-diaminonaphthalene",c1cc2cccc(c2c(c1)N)N,63,61381,http://www.alfa.com/en/GP100W.pgm?DSSTK=A15966,Alfa Aesar,2,63,66.5,3.5
2561,2-ethyl-4-methylimidazole,CCc1[nH]cc(n1)C,47,63447,http://www.alfa.com/en/GP100W.pgm?DSSTK=A15798,Alfa Aesar,2,47,50.5,3.5
6972,diphenylacetyl chloride,c1ccc(cc1)C(c2ccccc2)C(=O)Cl,53,67212,http://www.alfa.com/en/GP100W.pgm?DSSTK=L00171,Alfa Aesar,2,53,56.5,3.5
7891,N-acetylglycinamide,CC(=O)NC(=O)CN,138,68309,http://www.alfa.com/en/GP100W.pgm?DSSTK=B24940,Alfa Aesar,2,138,141.5,3.5
4317,4-(methylsulfonyl)benzoic acid,CS(=O)(=O)c1ccc(cc1)C(=O)O,273,70071,http://www.alfa.com/en/GP100W.pgm?DSSTK=H50230,Alfa Aesar,2,269.5,273,3.5
6673,citraconic acid,C/C(=C/C(=O)O)/C(=O)O,90,553689,http://www.alfa.com/en/GP100W.pgm?DSSTK=L04178,Alfa Aesar,2,90,93.5,3.5
13211,3-methyl-cis-2-pentene,CC=C(C)CC,-135,559027,http://www.amazon.com/dp/B002IYRJWI,American Petroleum Institute. Research Project 44; Selected Values of Properties of Hydrocarbons and Related Compounds. Texas A & M University; College Station; TX; 1973.,2,-138.5,-135,3.5
2905,2-methylbenzeneboronic acid,B(c1ccccc1C)(O)O,163,2015070,http://www.alfa.com/en/GP100W.pgm?DSSTK=B23154,Alfa Aesar,2,163,166.5,3.5
8562,trans-2-hexenoic acid,CCC/C=C/C(=O)O,33,4445834,http://www.alfa.com/en/GP100W.pgm?DSSTK=A13571,Alfa Aesar,2,33,36.5,3.5
4592,4'-aminoacetanilide,CC(=O)Nc1ccc(cc1)N,163,10297844,http://www.alfa.com/en/GP100W.pgm?DSSTK=B20740,Alfa Aesar,2,163,166.5,3.5
8289,phthaloyl chloride,c1ccc(c(c1)C(=O)Cl)C(=O)Cl,12,13865683,http://www.alfa.com/en/GP100W.pgm?DSSTK=L08753,Alfa Aesar,2,12,15.5,3.5
3644,3-aminopyridine,c1cc(cnc1)N,61,21111768,http://www.alfa.com/en/GP100W.pgm?DSSTK=A13216,Alfa Aesar,2,61,64.5,3.5
2122,"2-bromo-4,6-dichloroaniline",c1c(cc(c(c1Cl)N)Br)Cl,80,21168862,http://www.alfa.com/en/GP100W.pgm?DSSTK=A18436,Alfa Aesar,2,80,83.5,3.5
3272,"3,4-diaminopyridine",c1cncc(c1N)N,219,5705,http://www.alfa.com/en/GP100W.pgm?DSSTK=A12465,Alfa Aesar,3,216.5,220,3.5
16140,Tetraethyl orthosilicate,CCO[Si](OCC)(OCC)OCC,-86,6270,http://msds.chem.ox.ac.uk/,academic website,3,-86,-82.5,3.5
1168,"2,3,4,5,6-pentafluorobenzyl alcohol",C(c1c(c(c(c(c1F)F)F)F)F)O,34,9535,http://www.alfa.com/en/GP100W.pgm?DSSTK=A12119,Alfa Aesar,3,34,37.5,3.5
5980,5-methylbenzimidazole,Cc1ccc2c(c1)nc[nH]2,115,11484,http://www.alfa.com/en/GP100W.pgm?DSSTK=A15957,Alfa Aesar,3,112,115.5,3.5
5406,4-methylbiphenyl,Cc1ccc(cc1)c2ccccc2,46,12047,http://www.alfa.com/en/GP100W.pgm?DSSTK=A14702,Alfa Aesar,3,46,49.5,3.5
15924,Methylphosphonic acid,CP(=O)(O)O,106,13220,http://msds.chem.ox.ac.uk/,academic website,3,105,108.5,3.5
15984,N-Benzyl-9H-purin-6-amine,n2cnc(NCc1ccccc1)c3ncnc23,231,56177,http://msds.chem.ox.ac.uk/,academic website,3,231,234.5,3.5
4081,3-methyl-2-pyridone,Cc1ccc[nH]c1=O,140,63658,http://www.alfa.com/en/GP100W.pgm?DSSTK=A12700,Alfa Aesar,3,138,141.5,3.5
15658,Carbonohydrazide,NNC(=O)NN,157.5,66578,http://msds.chem.ox.ac.uk/,academic website,3,154,157.5,3.5
4370,4-(trifluoromethyl)phenylacetonitrile,c1cc(ccc1CC#N)C(F)(F)F,45,67895,http://www.alfa.com/en/GP100W.pgm?DSSTK=A19386,Alfa Aesar,3,45,48.5,3.5
13366,5-amino-1-pentanol,NCCCCCO,35,68156,http://www.amazon.com/dp/B003XEQTLE,Aldrich Chemical Company; Aldrich Catalog-Handbook of Fine Chemicals; Milwaukee; WI; 1984.,3,35,38.5,3.5
14698,"2,5-dibromonitrobenzene",O=[N+]([O-])c1cc(Br)ccc1Br,82,69450,http://www.amazon.com/dp/B003XEQTLE,Aldrich Chemical Company; Aldrich Catalog-Handbook of Fine Chemicals; Milwaukee; WI; 1984.,3,82,85.5,3.5
15784,Ethanethioamide,CC(N)=S,115,2006126,http://msds.chem.ox.ac.uk/,academic website,3,112,115.5,3.5
27396,(2S)-1-amino-2-propanol,C[C@@H](CN)O,25,5641722,http://www.alfa.com/en/GP100W.pgm?DSSTK=L14102,Alfa Aesar,3,21.5,25,3.5
28524,salicylideneaniline,Oc1ccccc1C=Nc2ccccc2,51,10237273,http://www.sciencedirect.com/science/article/pii/0022286087850391,Journal of Molecular Structure,3,47.5,51,3.5
2677,2-furoic acid,c1cc(oc1)C(=O)O,130,10251740,http://www.alfa.com/en/GP100W.pgm?DSSTK=A11454,Alfa Aesar,3,130,133.5,3.5
14375,p-bromoanisole,COc1ccc(Br)cc1,10,13881571,http://www.amazon.com/dp/B003XEQTLE,Aldrich Chemical Company; Aldrich Catalog-Handbook of Fine Chemicals; Milwaukee; WI; 1984.,3,10,13.5,3.5
8848,letrozole,N#Cc1ccc(cc1)C(c2ccc(C#N)cc2)n3cncn3,181,3765,http://dx.doi.org/10.1021/ci020280x,Bergstrom C. A. S.; Norinder U.; Luthman K.; Artursson P. Molecular Descriptors Influencing Melting Point and Their Role in Classification of Solid Drugs. J. Chem. Inf. Comput. Sci.; (Article); 2003; 43(4); 1177-1294,4,181,184.5,3.5
15175,"2,4-Dinitroaniline",O=[N+]([O-])c1cc(ccc1N)[N+]([O-])=O,176.5,7045,http://msds.chem.ox.ac.uk/,academic website,4,176.5,180,3.5
14963,"1,4-Dibromobutane",BrCCCCBr,-20,7765,http://msds.chem.ox.ac.uk/,academic website,4,-20,-16.5,3.5
14193,4-chlorophenylacetic_acid,Clc1ccc(CC(=O)O)cc1,103,15093,http://www.amazon.com/dp/B003XEQTLE,Aldrich Chemical Company; Aldrich Catalog-Handbook of Fine Chemicals; Milwaukee; WI; 1984.,4,103,106.5,3.5
15182,"2,5-Dichlorobenzoic acid",OC(=O)c1cc(Cl)ccc1Cl,152.5,10801689,http://msds.chem.ox.ac.uk/,academic website,4,152.5,156,3.5
15738,Dimethyl phthalate,COC(=O)c1ccccc1C(=O)OC,2,13837329,http://msds.chem.ox.ac.uk/,academic website,4,2,5.5,3.5
13550,"2,5-dimethylaniline",Cc1cc(N)c(C)cc1,12,13869434,http://www.amazon.com/dp/B003XEQTLE,Aldrich Chemical Company; Aldrich Catalog-Handbook of Fine Chemicals; Milwaukee; WI; 1984.,4,12,15.5,3.5
15000,1-Bromo-4-methylbenzene,Cc1ccc(Br)cc1,28.5,13875258,http://msds.chem.ox.ac.uk/,academic website,4,25,28.5,3.5
15265,2-Hydroxy-3-methoxybenzaldehyde,Oc1c(cccc1OC)C=O,41,21105848,http://msds.chem.ox.ac.uk/,academic website,4,41,44.5,3.5
15166,"2,4-Dichloro-1-nitrobenzene",O=[N+]([O-])c1ccc(Cl)cc1Cl,30.5,21106035,http://msds.chem.ox.ac.uk/,academic website,4,30.5,34,3.5
27569,"2,4,5-trichlorophenol",Clc1cc(O)c(Cl)cc1Cl,69,7001,http://www.amazon.com/gp/product/0849304865/,CRC Handbook of Chemistry and Physics,5,65.5,69,3.5
15461,4-Fluorophenol,Fc1ccc(O)cc1,45.5,9350,http://msds.chem.ox.ac.uk/,academic website,5,44.5,48,3.5
27726,9-Methylanthracene,CC1=C2C=CC=CC2=CC3=CC=CC=C13,78,12524,http://dx.doi.org/10.1016/j.chemosphere.2013.10.095,Abraham M.H. and Acree Jr. W.E. The solubility of liquid and solid compounds in dry octan-1-ol. Chemosphere (2013),5,78,81.5,3.5
27946,Cortisone,C[C@]12CCC(=O)C=C1CC[C@@H]3[C@@H]2C(=O)C[C@]4([C@H]3CC[C@@]4(C(=O)CO)O)C,225,193441,http://dx.doi.org/10.1016/j.chemosphere.2013.10.095,Abraham M.H. and Acree Jr. W.E. The solubility of liquid and solid compounds in dry octan-1-ol. Chemosphere (2013),5,222,225.5,3.5
1323,"2,3-dimethylphenol",Cc1cccc(c1C)O,72,13839151,http://www.alfa.com/en/GP100W.pgm?DSSTK=B22860,Alfa Aesar,5,71.5,75,3.5
27449,"1,2,3,5-Tetrachlorobenzene",C1=C(C=C(C(=C1Cl)Cl)Cl)Cl,51.5,21106571,http://dx.doi.org/10.1016/j.chemosphere.2013.10.095,Abraham M.H. and Acree Jr. W.E. The solubility of liquid and solid compounds in dry octan-1-ol. Chemosphere (2013),5,51.5,55,3.5
15594,Benzamide,NC(=O)c1ccccc1,127,2241,http://msds.chem.ox.ac.uk/,academic website,6,126.5,130,3.5
8833,haloperidol,OC2(CCN(CCCC(=O)c1ccc(F)cc1)CC2)c3ccc(Cl)cc3,148,3438,http://dx.doi.org/10.1021/ci020280x,Bergstrom C. A. S.; Norinder U.; Luthman K.; Artursson P. Molecular Descriptors Influencing Melting Point and Their Role in Classification of Solid Drugs. J. Chem. Inf. Comput. Sci.; (Article); 2003; 43(4); 1177-1279,6,148,151.5,3.5
28174,Hexamethylbenzene,CC1=C(C(=C(C(=C1C)C)C)C)C,167,6642,http://dx.doi.org/10.1016/j.chemosphere.2013.10.095,Abraham M.H. and Acree Jr. W.E. The solubility of liquid and solid compounds in dry octan-1-ol. Chemosphere (2013),6,164,167.5,3.5
28257,Methyl 4-aminobenzoate,COC(=O)C1=CC=C(C=C1)N,114,11585,http://dx.doi.org/10.1016/j.chemosphere.2013.10.095,Abraham M.H. and Acree Jr. W.E. The solubility of liquid and solid compounds in dry octan-1-ol. Chemosphere (2013),6,110.5,114,3.5
15196,"2,6-Dichlorophenol",Clc1cccc(Cl)c1O,68.5,6633,http://msds.chem.ox.ac.uk/,academic website,7,65,68.5,3.5
28422,Phenacetin,CCOC1=CC=C(C=C1)NC(=O)C,135,4590,http://dx.doi.org/10.1016/j.chemosphere.2013.10.095,Abraham M.H. and Acree Jr. W.E. The solubility of liquid and solid compounds in dry octan-1-ol. Chemosphere (2013),10,134,137.5,3.5
27880,Butyl 4-hydroxybenzoate,CCCCOC(=O)C1=CC=C(C=C1)O,69,6916,http://dx.doi.org/10.1016/j.chemosphere.2013.10.095,Abraham M.H. and Acree Jr. W.E. The solubility of liquid and solid compounds in dry octan-1-ol. Chemosphere (2013),11,68.5,72,3.5
4236,4-(2-hydroxyethyl)morpholine,C1COCCN1CCO,2,55110,http://www.alfa.com/en/GP100W.pgm?DSSTK=B22759,Alfa Aesar,2,-1.6,2,3.6
20720,"cyclohexane, 1-methyl-4-(1-methylethyl)-, cis-",CC1CCC(CC1)C(C)C,-89.9,7179,http://www.srcinc.com/what-we-do/product.aspx?id=133,PHYSPROP,3,-89.9,-86.3,3.6
16116,Sebacic acid,O=C(O)CCCCCCCCC(=O)O,134.5,5004,http://msds.chem.ox.ac.uk/,academic website,4,130.8,134.5,3.7
15377,3-Fluorophenol,Fc1cccc(O)c1,10,9360,http://msds.chem.ox.ac.uk/,academic website,3,10,13.7,3.7
13513,"2-ethyl-2-methyl-1,3-propanediol",CC(CC)(CO)CO,44,59556,http://www.amazon.com/dp/B003XEQTLE,Aldrich Chemical Company; Aldrich Catalog-Handbook of Fine Chemicals; Milwaukee; WI; 1984.,2,40.3,44,3.7
7397,isovaleric acid,CC(C)CC(=O)O,-33,10001,http://www.alfa.com/en/GP100W.pgm?DSSTK=A18642,Alfa Aesar,4,-33,-29.3,3.7
15692,Cyclopentanol,OC1CCCC1,-19,7026,http://msds.chem.ox.ac.uk/,academic website,7,-20,-16.25,3.75
16551,Estrone,Oc3cc4CC[C@@H]1[C@H](CC[C@]2(C)C(=O)CC[C@@H]12)c4cc3,255.25,5660,http://www.drugbank.ca/drugs/DB00655,DrugBank,3,255.25,259,3.75
14882,"1,1,1,3,3,3-Hexafluoropropane",FC(F)(F)CC(F)(F)F,-98,12199,http://msds.chem.ox.ac.uk/,academic website,2,-98,-94.2,3.8
13944,methyl_4-methylbenzoate,COC(=O)c1ccc(C)cc1,37,7175,http://www.amazon.com/dp/B003XEQTLE,Aldrich Chemical Company; Aldrich Catalog-Handbook of Fine Chemicals; Milwaukee; WI; 1984.,3,33.2,37,3.8
13898,o-methoxy_phenylacetonitrile,COc1ccccc1CC#N,66,73531,http://www.amazon.com/dp/B003XEQTLE,Aldrich Chemical Company; Aldrich Catalog-Handbook of Fine Chemicals; Milwaukee; WI; 1984.,3,66,69.8,3.8
15585,Anthracen-2-amine,Nc1ccc2cc3ccccc3cc2c1,235,11443,http://msds.chem.ox.ac.uk/,academic website,3,235,238.8,3.8
28168,Hexachlorobenzene,C1(=C(C(=C(C(=C1Cl)Cl)Cl)Cl)Cl)Cl,230,8067,http://dx.doi.org/10.1016/j.chemosphere.2013.10.095,Abraham M.H. and Acree Jr. W.E. The solubility of liquid and solid compounds in dry octan-1-ol. Chemosphere (2013),7,228,231.8,3.8
28189,imidacloprid,[O-][N+](=O)NC/1=N/CCN\1Cc2cnc(Cl)cc2,140.1,77934,"http://msds.chem.ox.ac.uk/CH/1-((6-chloro-3-pyridinyl)methyl)-4,5-dihydro-N-nitro-1H-imidazol-2-amine.html",Oxford University,2,140.1,144,3.9
14210,ethyl_octanoate,O=C(CCCCCCC)OCC,-47,7511,http://www.amazon.com/dp/B003XEQTLE,Aldrich Chemical Company; Aldrich Catalog-Handbook of Fine Chemicals; Milwaukee; WI; 1984.,3,-47,-43.1,3.9
14877,"1,1,1,2,3,3,3-Heptafluoropropane",FC(F)(F)C(F)C(F)(F)F,-131,61257,http://msds.chem.ox.ac.uk/,academic website,2,-131,-127.1,3.9
14896,"1,1':4',1''-Terphenyl",c1cc(ccc1)c2ccc(cc2)c3ccccc3,213,6848,http://msds.chem.ox.ac.uk/,academic website,4,210.1,214,3.9
14219,p-bromophenol,Oc1ccc(Br)cc1,66,13842573,http://www.amazon.com/dp/B003XEQTLE,Aldrich Chemical Company; Aldrich Catalog-Handbook of Fine Chemicals; Milwaukee; WI; 1984.,4,62.5,66.4,3.9
15617,beta-Alanine,NCCC(=O)O,196,234,http://msds.chem.ox.ac.uk/,academic website,2,196,200,4
22375,dl-norvaline,CCCC(N)C(=O)O,303,801,http://www.srcinc.com/what-we-do/product.aspx?id=133,PHYSPROP,2,303,307,4
8707,tryptamine,c1ccc2c(c1)c(c[nH]2)CCN,114,1118,http://www.alfa.com/en/GP100W.pgm?DSSTK=A11116,Alfa Aesar,2,114,118,4
2046,2-aminoethyl diphenylborinate,B(c1ccccc1)(c2ccccc2)OCCN,189,1540,http://www.alfa.com/en/GP100W.pgm?DSSTK=A16606,Alfa Aesar,2,189,193,4
5325,4'-methoxyacetanilide,CC(=O)Nc1ccc(cc1)OC,127,5622,http://www.alfa.com/en/GP100W.pgm?DSSTK=A13253,Alfa Aesar,2,127,131,4
16192,Tris(2-ethylhexyl) phosphate,CCCCC(COP(=O)(OCC(CC)CCCC)OCC(CC)CCCC)CC,-70,6289,http://msds.chem.ox.ac.uk/,academic website,2,-74,-70,4
8287,phthalimide,c1ccc2c(c1)C(=O)NC2=O,234,6550,http://www.alfa.com/en/GP100W.pgm?DSSTK=A12584,Alfa Aesar,2,234,238,4
7729,michler's ketone,CN(C)c1ccc(cc1)C(=O)c2ccc(cc2)N(C)C,175,6764,http://www.alfa.com/en/GP100W.pgm?DSSTK=A11889,Alfa Aesar,2,175,179,4
15536,7-(Diethylamino)-4-methyl-2H-chromen-2-one,CCN(CC)c1ccc2c(c1)OC(=O)C=C2C,70,6783,http://msds.chem.ox.ac.uk/,academic website,2,70,74,4
8300,piperonylic acid,c1cc2c(cc1C(=O)O)OCO2,233,6928,http://www.alfa.com/en/GP100W.pgm?DSSTK=A14105,Alfa Aesar,2,229,233,4
6032,5-tert-butyl-m-xylene,Cc1cc(cc(c1)C(C)(C)C)C,-22,7100,http://www.alfa.com/en/GP100W.pgm?DSSTK=A19220,Alfa Aesar,2,-22,-18,4
4276,4-(benzylamino)phenol,c1ccc(cc1)CNc2ccc(cc2)O,84,7355,http://www.alfa.com/en/GP100W.pgm?DSSTK=L12230,Alfa Aesar,2,84,88,4
8295,piperidine,C1CCNCC1,-11,7791,http://www.alfa.com/en/GP100W.pgm?DSSTK=A12442,Alfa Aesar,2,-11,-7,4
6617,chlorendic anhydride,C12C(C(=O)OC1=O)C3(C(=C(C2(C3(Cl)Cl)Cl)Cl)Cl)Cl,237,7967,http://www.alfa.com/en/GP100W.pgm?DSSTK=L07349,Alfa Aesar,2,233,237,4
2042,2-aminobenzothiazole,c1ccc2c(c1)nc(s2)N,128,8382,http://www.alfa.com/en/GP100W.pgm?DSSTK=A13521,Alfa Aesar,2,128,132,4
15604,Benzo[e]acephenanthrylene,c1cccc5c1cc4c2c5cccc2c3ccccc34,164,8799,http://msds.chem.ox.ac.uk/,academic website,2,164,168,4
5563,4-phenylsemicarbazide,c1ccc(cc1)NC(=O)NN,124,10380,http://www.alfa.com/en/GP100W.pgm?DSSTK=B25578,Alfa Aesar,2,124,128,4
13362,"2,3-dimethyl-2-butanol",CC(C)C(C)(C)O,-10,11180,http://www.amazon.com/dp/B002IYRJWI,American Petroleum Institute. Research Project 44; Selected Values of Properties of Hydrocarbons and Related Compounds. Texas A & M University; College Station; TX; 1973.,2,-14,-10,4
2463,2-chlorobenzyl chloride,c1ccc(c(c1)CCl)Cl,-13,11412,http://www.alfa.com/en/GP100W.pgm?DSSTK=A11900,Alfa Aesar,2,-17,-13,4
14226,2-chloro-4-nitrophenol,Oc1ccc(cc1Cl)[N+]([O-])=O,106,11577,http://www.amazon.com/dp/B003XEQTLE,Aldrich Chemical Company; Aldrich Catalog-Handbook of Fine Chemicals; Milwaukee; WI; 1984.,2,106,110,4
2688,2-hydroxy-1-naphthaldehyde,c1ccc2c(c1)ccc(c2C=O)O,79,12291,http://www.alfa.com/en/GP100W.pgm?DSSTK=B23951,Alfa Aesar,2,79,83,4
8597,tri(p-tolyl)phosphine,Cc1ccc(cc1)P(c2ccc(cc2)C)c3ccc(cc3)C,145,13352,http://www.alfa.com/en/GP100W.pgm?DSSTK=A14021,Alfa Aesar,2,145,149,4
2009,2-amino-5-nitrobenzophenone,c1ccc(cc1)C(=O)c2cc(ccc2N)[N+](=O)[O-],167,14916,http://www.alfa.com/en/GP100W.pgm?DSSTK=B23773,Alfa Aesar,2,163,167,4
14816,(3-Phenoxyphenyl)methanol,OCc2cc(Oc1ccccc1)ccc2,10,24499,http://msds.chem.ox.ac.uk/,academic website,2,6,10,4
6953,dipentaerythritol,C(C(CO)(CO)COCC(CO)(CO)CO)O,217,29085,http://www.alfa.com/en/GP100W.pgm?DSSTK=A18714,Alfa Aesar,2,217,221,4
8729,vinylacetic acid,C=CCC(=O)O,-39,30349,http://www.alfa.com/en/GP100W.pgm?DSSTK=L07557,Alfa Aesar,2,-39,-35,4
2724,2-hydroxy-5-nitrobenzaldehyde,c1cc(c(cc1[N+](=O)[O-])C=O)O,125,60173,http://www.alfa.com/en/GP100W.pgm?DSSTK=A10264,Alfa Aesar,2,125,129,4
8487,tetrafluorosuccinic acid,C(=O)(C(C(C(=O)O)(F)F)(F)F)O,115,61150,http://www.alfa.com/en/GP100W.pgm?DSSTK=B20462,Alfa Aesar,2,115,119,4
15979,N-Acetyl-L-tyrosine,Oc1ccc(C[C@H](NC(C)=O)C(=O)O)cc1,149,61606,http://msds.chem.ox.ac.uk/,academic website,2,149,153,4
3997,3-hydroxy-4-nitrobenzoic acid,c1cc(c(cc1C(=O)O)O)[N+](=O)[O-],234,62477,http://www.alfa.com/en/GP100W.pgm?DSSTK=A10724,Alfa Aesar,2,230,234,4
5492,4-nitrophenyl benzoate,c1ccc(cc1)C(=O)Oc2ccc(cc2)[N+](=O)[O-],143,63575,http://www.alfa.com/en/GP100W.pgm?DSSTK=L16024,Alfa Aesar,2,139,143,4
14007,cyclodecanone,O=C1CCCCCCCCC1,24,66551,http://www.amazon.com/dp/B003XEQTLE,Aldrich Chemical Company; Aldrich Catalog-Handbook of Fine Chemicals; Milwaukee; WI; 1984.,2,24,28,4
321,"1-bromo-2,3,5,6-tetramethylbenzene",Cc1cc(c(c(c1C)Br)C)C,60,66847,http://www.alfa.com/en/GP100W.pgm?DSSTK=L01465,Alfa Aesar,2,56,60,4
5757,5-bromo-2-hydroxybenzyl alcohol,c1cc(c(cc1Br)CO)O,109,67879,http://www.alfa.com/en/GP100W.pgm?DSSTK=A12344,Alfa Aesar,2,109,113,4
2841,2-methoxybenzophenone,COc1ccccc1C(=O)c2ccccc2,37,68220,http://www.alfa.com/en/GP100W.pgm?DSSTK=B23376,Alfa Aesar,2,37,41,4
7630,methyl 5-chloro-2-hydroxybenzoate,COC(=O)c1cc(ccc1O)Cl,46,70085,http://www.alfa.com/en/GP100W.pgm?DSSTK=A19971,Alfa Aesar,2,46,50,4
15993,N-Ethyl-N-isopropylpropan-2-amine,CC(C)N(CC)C(C)C,-50,73565,http://msds.chem.ox.ac.uk/,academic website,2,-50,-46,4