key,name,smiles,mpC,csid,link,source,count,min,max,range
6568,bis(trimethylsilyl)acetylene,C[Si](C)(C)C#C[Si](C)(C)C,22,76286,http://www.alfa.com/en/GP100W.pgm?DSSTK=A11960,Alfa Aesar,2,22,26,4
1791,"2,6-dihydroxynaphthalene",c1cc(cc2c1cc(cc2)O)O,224,84452,http://www.alfa.com/en/GP100W.pgm?DSSTK=B21465,Alfa Aesar,2,220,224,4
7879,"N,N'-diphenylformamidine",c1ccc(cc1)N/C=N/c2ccccc2,138,85615,http://www.alfa.com/en/GP100W.pgm?DSSTK=B23786,Alfa Aesar,2,138,142,4
7158,ethyl benzilate,CCOC(=O)C(c1ccccc1)(c2ccccc2)O,30,86894,http://www.alfa.com/en/GP100W.pgm?DSSTK=A11073,Alfa Aesar,2,30,34,4
2521,2-cyanobenzaldehyde,c1ccc(c(c1)C=O)C#N,104,91446,http://www.alfa.com/en/GP100W.pgm?DSSTK=H29027,Alfa Aesar,2,104,108,4
14831,"(8alpha,9R)-Cinchonan-9-ol",O[C@H](c2ccnc1ccccc12)[C@@H]4C[C@@H]3CC[N@]4C[C@@H]3C=C,200,91930,http://msds.chem.ox.ac.uk/,academic website,2,200,204,4
4369,4-(trifluoromethyl)phenylacetic acid,c1cc(ccc1CC(=O)O)C(F)(F)F,80,105768,http://www.alfa.com/en/GP100W.pgm?DSSTK=B22526,Alfa Aesar,2,80,84,4
1071,2-(trifluoromethyl)cinnamic acid,c1ccc(c(c1)/C=C/C(=O)O)C(F)(F)F,202,628106,http://www.alfa.com/en/GP100W.pgm?DSSTK=L02587,Alfa Aesar,2,202,206,4
11993,3-(benzyloxy)androstan-17-one,O=C1CCC2C3CCC4CC(OCc5ccccc5)CCC4(C)C3CCC12C,216,2029577,http://dx.doi.org/10.1021/ci0500132,Karthikeyan M.; Glen R.C.; Bender A. General melting point prediction based on a diverse compound dataset and artificial neural networks. J. Chem. Inf. Model.; 2005; 45(3); 581-3575,2,216,220,4
6487,benzyl cinnamate,c1ccc(cc1)COC(=O)/C=C/c2ccccc2,35,4437893,http://www.alfa.com/en/GP100W.pgm?DSSTK=A19550,Alfa Aesar,2,35,39,4
27285,"5,7-Dihydroxy-6-methoxy-2-(4-methoxyphenyl)-4H-chromen-4-one",O=C1c3c(O)c(OC)c(O)cc3OC(=C1)c2ccc(OC)cc2,225,4478521,http://scripts.iucr.org/cgi-bin/paper?rz2178,IUCr,2,221,225,4
9808,3-nitro-4-[(E)-2-(4-nitrophenyl)ethenyl]aniline,O=[N+]([O-])c1ccc(cc1)C=Cc1ccc(N)cc1[N+](=O)[O-],198,4644742,http://dx.doi.org/10.1021/ci0500132,Karthikeyan M.; Glen R.C.; Bender A. General melting point prediction based on a diverse compound dataset and artificial neural networks. J. Chem. Inf. Model.; 2005; 45(3); 581-1390,2,198,202,4
14928,"1,2-O-[(1R)-2,2,2-Trichloroethylidene]-alpha-D-glucofuranose",OC[C@@H](O)[C@H]1O[C@@H]2O[C@@H](O[C@@H]2[C@H]1O)C(Cl)(Cl)Cl,187,5414376,http://msds.chem.ox.ac.uk/,academic website,2,183,187,4
14880,"1,1,1,3,3,3-Hexafluoroacetone",FC(F)(F)C(=O)C(F)(F)F,-129,13846015,http://msds.chem.ox.ac.uk/,academic website,2,-129,-125,4
14859,1-(Chloromethyl)-2-methylbenzene,Cc1ccccc1CCl,-2,21106134,http://msds.chem.ox.ac.uk/,academic website,2,-2,2,4
5238,4-hydroxydiphenylamine,c1ccc(cc1)Nc2ccc(cc2)O,69,21111849,http://www.alfa.com/en/GP100W.pgm?DSSTK=L18945,Alfa Aesar,2,69,73,4
1557,"2,4-lutidine",Cc1ccnc(c1)C,-60,21132380,http://www.alfa.com/en/GP100W.pgm?DSSTK=B22913,Alfa Aesar,2,-64,-60,4
4816,"4-bromo-n,n-diethylaniline",CCN(CC)c1ccc(cc1)Br,34,21159579,http://www.alfa.com/en/GP100W.pgm?DSSTK=L03619,Alfa Aesar,2,34,38,4
8966,metolazone,CC2Nc1cc(Cl)c(cc1C(=O)N2c3ccccc3C)S(N)(=O)=O,252,4026,http://dx.doi.org/10.1021/ci020280x,Bergstrom C. A. S.; Norinder U.; Luthman K.; Artursson P. Molecular Descriptors Influencing Melting Point and Their Role in Classification of Solid Drugs. J. Chem. Inf. Comput. Sci.; (Article); 2003; 43(4); 1177-1412,3,252,256,4
8040,neopentyl alcohol,CC(C)(C)CO,54,6164,http://www.alfa.com/en/GP100W.pgm?DSSTK=A14390,Alfa Aesar,3,50,54,4
2863,2-methyl-2-butanol,CCC(C)(C)O,-12,6165,http://www.alfa.com/en/GP100W.pgm?DSSTK=A18304,Alfa Aesar,3,-12,-8,4
27405,1-Chloroanthraquinone,C1=CC=C2C(=C1)C(=O)C3=C(C2=O)C(=CC=C3)Cl,159,6453,http://dx.doi.org/10.1016/j.chemosphere.2013.10.095,Abraham M.H. and Acree Jr. W.E. The solubility of liquid and solid compounds in dry octan-1-ol. Chemosphere (2013),3,159,163,4
14998,"1-Amino-9,10-anthraquinone",O=C3c1ccccc1C(=O)c2c3cccc2N,250,6454,http://msds.chem.ox.ac.uk/,academic website,3,250,254,4
15445,4-Chloro-2-isopropyl-5-methylphenol,Oc1cc(C)c(Cl)cc1C(C)C,59,6716,http://msds.chem.ox.ac.uk/,academic website,3,59,63,4
13565,2-methylbenzyl_alcohol,Cc1ccccc1CO,39,6728,http://www.amazon.com/dp/B003XEQTLE,Aldrich Chemical Company; Aldrich Catalog-Handbook of Fine Chemicals; Milwaukee; WI; 1984.,3,35,39,4
15079,1-Phenylpyrazolidin-3-one,O=C1CCN(N1)c2ccccc2,122,6823,http://msds.chem.ox.ac.uk/,academic website,3,122,126,4
15340,3-(Dimethylamino)phenol,CN(C)c1cccc(O)c1,83,7143,http://msds.chem.ox.ac.uk/,academic website,3,82,86,4
13961,"5-nitro-1,3-dimethylbenzene",Cc1cc(C)cc(c1)[N+](=O)[O-],74,7148,http://www.amazon.com/dp/B003XEQTLE,Aldrich Chemical Company; Aldrich Catalog-Handbook of Fine Chemicals; Milwaukee; WI; 1984.,3,71,75,4
15751,Diphenyl carbonate,O=C(Oc1ccccc1)Oc2ccccc2,79,7315,http://msds.chem.ox.ac.uk/,academic website,3,79,83,4
1537,"2,4-dimethylpentane",CC(C)CC(C)C,-123,7619,http://www.alfa.com/en/GP100W.pgm?DSSTK=L03570,Alfa Aesar,3,-123,-119,4
8709,undecanal,CCCCCCCCCCC=O,-2,7894,http://www.alfa.com/en/GP100W.pgm?DSSTK=A16101,Alfa Aesar,3,-4,0,4
15455,4-Chlorobenzoyl chloride,O=C(Cl)c1ccc(Cl)cc1,13,8187,http://msds.chem.ox.ac.uk/,academic website,3,12,16,4
8490,tetrahydropyran,C1CCOCC1,-49,8554,http://www.alfa.com/en/GP100W.pgm?DSSTK=A13392,Alfa Aesar,3,-49,-45,4
15700,Decan-1-amine,CCCCCCCCCCN,13,8576,http://msds.chem.ox.ac.uk/,academic website,3,13,17,4
15152,"2,3-Disulfanylsuccinic acid",O=C(O)C(S)C(S)C(O)=O,197,8988,http://msds.chem.ox.ac.uk/,academic website,3,193,197,4
15197,"2,6-Diiodo-4-nitrophenol",Ic1cc(cc(I)c1O)[N+]([O-])=O,157,9002,http://msds.chem.ox.ac.uk/,academic website,3,153,157,4
15028,1-Fluoronaphthalene,Fc2cccc1ccccc12,-13,9078,http://msds.chem.ox.ac.uk/,academic website,3,-13,-9,4
8455,tert-butyl bromide,CC(C)(C)Br,-20,10053,http://www.alfa.com/en/GP100W.pgm?DSSTK=A13727,Alfa Aesar,3,-20,-16,4
8892,propallylonal,CC(C)C1(CC(Br)=C)C(=O)NC(=O)NC1=O,177,10554,http://dx.doi.org/10.1021/ci020280x,Bergstrom C. A. S.; Norinder U.; Luthman K.; Artursson P. Molecular Descriptors Influencing Melting Point and Their Role in Classification of Solid Drugs. J. Chem. Inf. Comput. Sci.; (Article); 2003; 43(4); 1177-1338,3,177,181,4
15874,Isothiocyanatomethane,CN=C=S,35,10694,http://msds.chem.ox.ac.uk/,academic website,3,32,36,4
4207,3-tert-butylphenol,CC(C)(C)c1cccc(c1)O,45,10966,http://www.alfa.com/en/GP100W.pgm?DSSTK=B24315,Alfa Aesar,3,41,45,4
7411,levulinic acid,CC(=O)CCC(=O)O,29,11091,http://www.alfa.com/en/GP100W.pgm?DSSTK=A10813,Alfa Aesar,3,29,33,4
13461,2-methylheptane,CC(C)CCCCC,-109,11106,http://www.amazon.com/dp/B002IYRJWI,American Petroleum Institute. Research Project 44; Selected Values of Properties of Hydrocarbons and Related Compounds. Texas A & M University; College Station; TX; 1973.,3,-109,-105,4
16052,Pentabromophenol,Brc1c(O)c(Br)c(Br)c(Br)c1Br,230,11359,http://msds.chem.ox.ac.uk/,academic website,3,226,230,4
13765,2-phenyl-2-propanol,CC(O)(C)c1ccccc1,34,11556,http://www.amazon.com/dp/B003XEQTLE,Aldrich Chemical Company; Aldrich Catalog-Handbook of Fine Chemicals; Milwaukee; WI; 1984.,3,32,36,4
13923,p-nitrobenzonitrile,O=[N+]([O-])c1ccc(C#N)cc1,149,11593,http://www.amazon.com/dp/B003XEQTLE,Aldrich Chemical Company; Aldrich Catalog-Handbook of Fine Chemicals; Milwaukee; WI; 1984.,3,145,149,4
13494,m-tolunitrile,N#Cc1cccc(C)c1,-23,11607,http://www.amazon.com/dp/B003XEQTLE,Aldrich Chemical Company; Aldrich Catalog-Handbook of Fine Chemicals; Milwaukee; WI; 1984.,3,-27,-23,4
15501,4-Phenoxyphenol,Oc2ccc(Oc1ccccc1)cc2,80,12696,http://msds.chem.ox.ac.uk/,academic website,3,80,84,4
14853,1-(2-Furyl)ethanone,CC(=O)c1ccco1,29.5,13849,http://msds.chem.ox.ac.uk/,academic website,3,29,33,4
13853,4-chloro-2-methylphenol,Cc1cc(Cl)ccc1O,47,14165,http://www.amazon.com/dp/B003XEQTLE,Aldrich Chemical Company; Aldrich Catalog-Handbook of Fine Chemicals; Milwaukee; WI; 1984.,3,47,51,4
6525,"biphenyl-4,4'-dicarbonitrile",c1cc(ccc1C#N)c2ccc(cc2)C#N,234,14584,http://www.alfa.com/en/GP100W.pgm?DSSTK=L03450,Alfa Aesar,3,234,238,4
13903,3-cyanobenzoic_acid,OC(=O)c1cccc(C#N)c1,223,15088,http://www.amazon.com/dp/B003XEQTLE,Aldrich Chemical Company; Aldrich Catalog-Handbook of Fine Chemicals; Milwaukee; WI; 1984.,3,219,223,4
7387,isopropylidene malonate,CC1(OC(=O)CC(=O)O1)C,94,15418,http://www.alfa.com/en/GP100W.pgm?DSSTK=A15603,Alfa Aesar,3,94,98,4
13747,p-toluamide,Cc1ccc(cc1)C(=O)N,163,62485,http://www.amazon.com/dp/B003XEQTLE,Aldrich Chemical Company; Aldrich Catalog-Handbook of Fine Chemicals; Milwaukee; WI; 1984.,3,159,163,4
2353,2-chloro-4-methylquinoline,Cc1cc(nc2c1cccc2)Cl,55,62656,http://www.alfa.com/en/GP100W.pgm?DSSTK=H26504,Alfa Aesar,3,55,59,4
508,"1,4-diacetoxybenzene",CC(=O)Oc1ccc(cc1)OC(=O)C,121,64166,http://www.alfa.com/en/GP100W.pgm?DSSTK=B20987,Alfa Aesar,3,121,125,4
13515,2-aminobenzonitrile,N#Cc1ccccc1N,48,65745,http://www.amazon.com/dp/B003XEQTLE,Aldrich Chemical Company; Aldrich Catalog-Handbook of Fine Chemicals; Milwaukee; WI; 1984.,3,47,51,4
4515,4-acetamidobenzaldehyde,CC(=O)Nc1ccc(cc1)C=O,156,66572,http://www.alfa.com/en/GP100W.pgm?DSSTK=B20430,Alfa Aesar,3,156,160,4
14182,3-undecanone,CCC(=O)CCCCCCCC,13,67735,http://www.amazon.com/dp/B003XEQTLE,Aldrich Chemical Company; Aldrich Catalog-Handbook of Fine Chemicals; Milwaukee; WI; 1984.,3,9,13,4
28278,N-(4-methoxybenzylidene)aniline,COc1ccc(cc1)C=Nc2ccccc2,65,89076,http://tinyurl.com/3zn29p5,Sigma-Aldrich,3,61,65,4
28276,N-(4-Dimethylaminobenzylidene)aniline,N(=C/c1ccc(N(C)C)cc1)\c2ccccc2,99,204209,http://pubs.acs.org/doi/pdf/10.1021/jo00438a016,Journal of Organic Chemistry,3,96,100,4
13416,cyclooctene,C1CC=CCCCC1,-16,553642,http://www.amazon.com/dp/B003XEQTLE,Aldrich Chemical Company; Aldrich Catalog-Handbook of Fine Chemicals; Milwaukee; WI; 1984.,3,-16,-12,4
5346,4-methoxychalcone,COc1ccc(cc1)/C=C/C(=O)c2ccccc2,75,557051,http://www.alfa.com/en/GP100W.pgm?DSSTK=L03319,Alfa Aesar,3,75,79,4
8294,"piperazine, anhydrous",C1CNCCN1,110,13835459,http://www.alfa.com/en/GP100W.pgm?DSSTK=A15049,Alfa Aesar,3,106,110,4
15091,2-(2-Ethoxyethoxy)ethanol,OCCOCCOCC,-76,13839107,http://msds.chem.ox.ac.uk/,academic website,3,-80,-76,4
13718,2-methoxyethyl_ether,COCCOCCOC,-64,13839575,http://www.amazon.com/dp/B003XEQTLE,Aldrich Chemical Company; Aldrich Catalog-Handbook of Fine Chemicals; Milwaukee; WI; 1984.,3,-68,-64,4
13575,3-hydroxybenzaldehyde,O=Cc1cc(O)ccc1,105,21105795,http://www.amazon.com/dp/B003XEQTLE,Aldrich Chemical Company; Aldrich Catalog-Handbook of Fine Chemicals; Milwaukee; WI; 1984.,3,104,108,4
3017,2-phenoxyethyl chloride,c1ccc(cc1)OCCCl,24,21168833,http://www.alfa.com/en/GP100W.pgm?DSSTK=L11345,Alfa Aesar,3,24,28,4
15279,2-Methoxyphenol,Oc1ccccc1OC,28,447,http://msds.chem.ox.ac.uk/,academic website,4,28,32,4
7264,glybenzcyclamide,COc1ccc(cc1C(=O)NCCc2ccc(cc2)S(=O)(=O)NC(=O)NC3CCCCC3)Cl,173,3368,http://www.alfa.com/en/GP100W.pgm?DSSTK=B21459,Alfa Aesar,4,169,173,4
5557,4-phenylbutyric acid,c1ccc(cc1)CCCC(=O)O,51,4611,http://www.alfa.com/en/GP100W.pgm?DSSTK=A18115,Alfa Aesar,4,48,52,4
16072,"Phenanthrene-9,10-dione",O=C2c3ccccc3c1ccccc1C2=O,210,6505,http://msds.chem.ox.ac.uk/,academic website,4,206,210,4
15200,"2,6-Dimethylaniline",Cc1cccc(C)c1N,8,6630,http://msds.chem.ox.ac.uk/,academic website,4,8,12,4
15490,4-Methylpentan-2-one,CC(C)CC(C)=O,-80,7621,http://msds.chem.ox.ac.uk/,academic website,4,-84,-80,4
15843,Hexan-1-amine,CCCCCCN,-23,7811,http://msds.chem.ox.ac.uk/,academic website,4,-23,-19,4
16057,Pentaerythritol,OCC(CO)(CO)CO,260.5,7984,http://msds.chem.ox.ac.uk/,academic website,4,258,262,4
27547,"2,3-Benzofluorene Benzo[b]fluorene",C1C2=CC=CC=C2C3=CC4=CC=CC=C4C=C31,210,8846,http://dx.doi.org/10.1016/j.chemosphere.2013.10.095,Abraham M.H. and Acree Jr. W.E. The solubility of liquid and solid compounds in dry octan-1-ol. Chemosphere (2013),4,208,212,4
27611,3-Methoxybenzoic acid,COC1=CC=CC(=C1)C(=O)O,106,10977,http://dx.doi.org/10.1016/j.chemosphere.2013.10.095,Abraham M.H. and Acree Jr. W.E. The solubility of liquid and solid compounds in dry octan-1-ol. Chemosphere (2013),4,103,107,4
15281,"2-Methyl-1,3-dinitrobenzene",Cc1c(cccc1[N+](=O)[O-])[N+]([O-])=O,65,11320,http://msds.chem.ox.ac.uk/,academic website,4,62,66,4
14860,1-(Chloromethyl)-2-nitrobenzene,O=[N+]([O-])c1ccccc1CCl,47,11427,http://msds.chem.ox.ac.uk/,academic website,4,47,51,4
27558,"2,3,4,5-Tetrachloroanisole",Clc1c(OC)cc(Cl)c(Cl)c1Cl,84,13060,http://dx.doi.org/10.1016/j.chemosphere.2013.10.095,Abraham M.H. and Acree Jr. W.E. The solubility of liquid and solid compounds in dry octan-1-ol. Chemosphere (2013),4,84,88,4
15429,4-Acetamidobenzoic acid,O=C(C)Nc1ccc(cc1)C(=O)O,256,18177,http://msds.chem.ox.ac.uk/,academic website,4,256,260,4
14087,m-diacetylbenzene,O=C(C)c1cccc(c1)C(C)=O,36,21733,http://www.amazon.com/dp/B003XEQTLE,Aldrich Chemical Company; Aldrich Catalog-Handbook of Fine Chemicals; Milwaukee; WI; 1984.,4,32,36,4
28117,Fluorodifen,C1=CC(=CC=C1[N+](=O)[O-])OC2=C(C=C(C=C2)C(F)(F)F)[N+](=O)[O-],90,25404,http://dx.doi.org/10.1016/j.chemosphere.2013.10.095,Abraham M.H. and Acree Jr. W.E. The solubility of liquid and solid compounds in dry octan-1-ol. Chemosphere (2013),4,90,94,4
15460,4-Ethylphenol,CCc1ccc(O)cc1,43.5,28982,http://msds.chem.ox.ac.uk/,academic website,4,43,47,4
15043,1-Iodo-2-nitrobenzene,Ic1ccccc1[N+](=O)[O-],50,62332,http://msds.chem.ox.ac.uk/,academic website,4,50,54,4
15620,Biphenyl-2-ol,Oc2ccccc2c1ccccc1,57,13839012,http://msds.chem.ox.ac.uk/,academic website,4,56,60,4
14842,(Trichloromethyl)benzene,ClC(Cl)(Cl)c1ccccc1,-5,13882366,http://msds.chem.ox.ac.uk/,academic website,4,-8,-4,4
14785,(2E)-3-Phenylprop-2-en-1-ol,OCC=Cc1ccccc1,30,21105870,http://msds.chem.ox.ac.uk/,academic website,4,30,34,4
14968,"1,4-Dimethoxybenzene",COc1ccc(OC)cc1,58,21105878,http://msds.chem.ox.ac.uk/,academic website,4,56,60,4
8740,acebutolol,CCCC(=O)Nc1ccc(OCC(O)CNC(C)C)c(c1)C(C)=O,119,1901,http://dx.doi.org/10.1021/ci020280x,Bergstrom C. A. S.; Norinder U.; Luthman K.; Artursson P. Molecular Descriptors Influencing Melting Point and Their Role in Classification of Solid Drugs. J. Chem. Inf. Comput. Sci.; (Article); 2003; 43(4); 1177-1186,5,119,123,4
27902,Carbazole,C1=CC=C2C(=C1)C3=CC=CC=C3N2,247,6593,http://dx.doi.org/10.1016/j.chemosphere.2013.10.095,Abraham M.H. and Acree Jr. W.E. The solubility of liquid and solid compounds in dry octan-1-ol. Chemosphere (2013),5,243,247,4
14466,phenyl_benzoate,O=C(Oc1ccccc1)c2ccccc2,70,6901,http://www.amazon.com/dp/B003XEQTLE,Aldrich Chemical Company; Aldrich Catalog-Handbook of Fine Chemicals; Milwaukee; WI; 1984.,5,67,71,4
28275,Monuron,CN(C)C(=O)NC1=CC=C(C=C1)Cl,174,8470,http://dx.doi.org/10.1016/j.chemosphere.2013.10.095,Abraham M.H. and Acree Jr. W.E. The solubility of liquid and solid compounds in dry octan-1-ol. Chemosphere (2013),5,170.5,174.5,4
27456,"1,2,4,5-Tetrabromobenzene",C1=C(C(=CC(=C1Br)Br)Br)Br,182,11974,http://dx.doi.org/10.1016/j.chemosphere.2013.10.095,Abraham M.H. and Acree Jr. W.E. The solubility of liquid and solid compounds in dry octan-1-ol. Chemosphere (2013),5,178,182,4
15491,4-Nitroaniline,O=[N+]([O-])c1ccc(N)cc1,148,13846959,http://msds.chem.ox.ac.uk/,academic website,5,146,150,4
15405,4-(Dipropylsulfamoyl)benzoic acid,O=S(=O)(N(CCC)CCC)c1ccc(cc1)C(=O)O,195,4742,http://msds.chem.ox.ac.uk/,academic website,6,195,199,4
28019,Dibenz[ah]anthracene,C1=CC=C2C(=C1)C=CC3=CC4=C(C=CC5=CC=CC=C54)C=C32,269,5678,http://dx.doi.org/10.1016/j.chemosphere.2013.10.095,Abraham M.H. and Acree Jr. W.E. The solubility of liquid and solid compounds in dry octan-1-ol. Chemosphere (2013),6,266,270,4
27505,2-Bromobenzoic acid,C1=CC=C(C(=C1)C(=O)O)Br,149,6674,http://dx.doi.org/10.1016/j.chemosphere.2013.10.095,Abraham M.H. and Acree Jr. W.E. The solubility of liquid and solid compounds in dry octan-1-ol. Chemosphere (2013),6,146,150,4
15391,3-Nitrophenol,O=[N+]([O-])c1cccc(O)c1,97,10664,http://msds.chem.ox.ac.uk/,academic website,6,94,98,4
27663,4-Bromobenzoic acid,C1=CC(=CC=C1C(=O)O)Br,253,10980,http://dx.doi.org/10.1016/j.chemosphere.2013.10.095,Abraham M.H. and Acree Jr. W.E. The solubility of liquid and solid compounds in dry octan-1-ol. Chemosphere (2013),6,252,256,4
28141,Furosemide,C1=COC(=C1)CNC2=CC(=C(C=C2C(=O)O)S(=O)(=O)N)Cl,206,3322,http://dx.doi.org/10.1016/j.chemosphere.2013.10.095,Abraham M.H. and Acree Jr. W.E. The solubility of liquid and solid compounds in dry octan-1-ol. Chemosphere (2013),7,204,208,4
27628,"3,4-Dichloronitrobenzene",C1=CC(=C(C=C1[N+](=O)[O-])Cl)Cl,41.3,21106095,http://dx.doi.org/10.1016/j.chemosphere.2013.10.095,Abraham M.H. and Acree Jr. W.E. The solubility of liquid and solid compounds in dry octan-1-ol. Chemosphere (2013),7,39,43,4
27861,Bibenzyl,C1=CC=C(C=C1)CCC2=CC=CC=C2,52,7364,http://dx.doi.org/10.1016/j.chemosphere.2013.10.095,Abraham M.H. and Acree Jr. W.E. The solubility of liquid and solid compounds in dry octan-1-ol. Chemosphere (2013),8,51,55,4
28437,Phenothazine,C1=CC=C2C(=C1)NC3=CC=CC=C3S2,187,21106365,http://dx.doi.org/10.1016/j.chemosphere.2013.10.095,Abraham M.H. and Acree Jr. W.E. The solubility of liquid and solid compounds in dry octan-1-ol. Chemosphere (2013),8,183.5,187.5,4
28259,Methyl 4-hydroxybenzoate,COC(=O)C1=CC=C(C=C1)O,131,7176,http://dx.doi.org/10.1016/j.chemosphere.2013.10.095,Abraham M.H. and Acree Jr. W.E. The solubility of liquid and solid compounds in dry octan-1-ol. Chemosphere (2013),9,127,131,4
28089,Ethyl 4-aminobenzoate,CCOC(=O)C1=CC=C(C=C1)N,89,13854242,http://dx.doi.org/10.1016/j.chemosphere.2013.10.095,Abraham M.H. and Acree Jr. W.E. The solubility of liquid and solid compounds in dry octan-1-ol. Chemosphere (2013),10,88,92,4
28523,Salicylic acid,C1=CC=C(C(=C1)C(=O)O)O,159,331,http://dx.doi.org/10.1016/j.chemosphere.2013.10.095,Abraham M.H. and Acree Jr. W.E. The solubility of liquid and solid compounds in dry octan-1-ol. Chemosphere (2013),16,157,161,4
15639,"Buta-1,3-diene",C=CC=C,-113,7557,http://msds.chem.ox.ac.uk/,academic website,2,-113,-108.9,4.1
15569,Acetonitrile,CC#N,-46,6102,http://msds.chem.ox.ac.uk/,academic website,9,-48,-43.8,4.2
15230,2-Butoxyethanol,CCCCOCCO,-75,13836399,http://msds.chem.ox.ac.uk/,academic website,3,-79,-74.8,4.2
15823,Heptadecan-1-ol,CCCCCCCCCCCCCCCCCO,57,14348,http://msds.chem.ox.ac.uk/,academic website,4,53.8,58,4.2
4121,3-methylstyrene,Cc1cccc(c1)C=C,-82,7248,http://www.alfa.com/en/GP100W.pgm?DSSTK=L08072,Alfa Aesar,3,-86.3,-82,4.3
13892,2-phenyl-3-butyn-2-ol,CC(O)(C#C)c1ccccc1,48,83147,http://www.amazon.com/dp/B003XEQTLE,Aldrich Chemical Company; Aldrich Catalog-Handbook of Fine Chemicals; Milwaukee; WI; 1984.,3,48,52.3,4.3
27531,2-Methylbenzoic acid,CC1=CC=CC=C1C(=O)O,108,8070,http://dx.doi.org/10.1016/j.chemosphere.2013.10.095,Abraham M.H. and Acree Jr. W.E. The solubility of liquid and solid compounds in dry octan-1-ol. Chemosphere (2013),6,103.7,108,4.3
14974,"1,6-Dibromohexane",BrCCCCCCBr,2,11862,http://msds.chem.ox.ac.uk/,academic website,3,-2.3,2,4.3
573,"1,3-diiodobenzene",c1cc(cc(c1)I)I,36,21168837,http://www.alfa.com/en/GP100W.pgm?DSSTK=L17445,Alfa Aesar,3,36,40.4,4.4
15646,"Butane-1,4-diol",OCCCCO,18,13835209,http://msds.chem.ox.ac.uk/,academic website,5,16,20.4,4.4
17350,"cyclopentane, 1,2,3-trimethyl-, (1.alpha.,2.alph",CC1CCC(C)C1C,-116.4,32554,http://www.srcinc.com/what-we-do/product.aspx?id=133,PHYSPROP,2,-116.4,-112,4.4
2102,"2-bromo-2-nitropropane-1,3-diol",C(C(CO)([N+](=O)[O-])Br)O,127,2356,http://www.alfa.com/en/GP100W.pgm?DSSTK=A11639,Alfa Aesar,2,127,131.5,4.5
6799,dibenzyl succinate,c1ccc(cc1)COC(=O)CCC(=O)OCc2ccccc2,45,7370,http://www.alfa.com/en/GP100W.pgm?DSSTK=B25257,Alfa Aesar,2,45,49.5,4.5
1137,"2,2'-dihydroxy-4,4'-dimethoxybenzophenone",COc1ccc(c(c1)O)C(=O)c2ccc(cc2O)OC,135,8252,http://www.alfa.com/en/GP100W.pgm?DSSTK=B23518,Alfa Aesar,2,135,139.5,4.5
3477,"3,5-diiodosalicylic acid",c1c(cc(c(c1C(=O)O)O)I)I,231,8310,http://www.alfa.com/en/GP100W.pgm?DSSTK=A19786,Alfa Aesar,2,231,235.5,4.5
4412,"4,4'-difluorobenzophenone",c1cc(ccc1C(=O)c2ccc(cc2)F)F,108,9206,http://www.alfa.com/en/GP100W.pgm?DSSTK=A10653,Alfa Aesar,2,103.5,108,4.5