Name,SMILES,Log S [log (S / mol L-1)],Tm (°C),Log P,References,,,CAS#,MW
clofazimine,CC(C)N=C1C=C2C(=NC3=CC=CC=C3N2C4=CC=C(C=C4)Cl)C=C1NC5=CC=C(C=C5)Cl,-5.800,211.0,7.66,35,35,39,2030-63-9,473.407
clonidine,C1CN=C(N1)NC2=C(C=CC=C2Cl)Cl,-0.100,130.0,1.57,13,39,30,4205-90-7,230.098
codeine,CN1CC[C@]23[C@@H]4[C@H]1CC5=C2C(=C(C=C5)OC)O[C@H]3[C@H](C=C4)O,-1.520,157.5,1.19,13,39,39,76-57-3,299.370
corticosterone,C[C@]12CCC(=O)C=C1CC[C@@H]3[C@@H]2[C@H](C[C@]4([C@H]3CC[C@@H]4C(=O)CO)C)O,-3.240,145.0,1.94,"13,35",35,39,50-22-6,346.467
cortisone,C[C@]12CCC(=O)C=C1CC[C@@H]3[C@@H]2C(=O)C[C@]4([C@H]3CC[C@@]4(C(=O)CO)O)C,-3.270,222.0,1.47,"13,35",35,39,53-06-5,360.450
cyclobarbital,CCC1(C(=O)NC(=O)NC1=O)C2=CCCCC2,-2.196,172.5,1.77,"13,35",35,30,52-31-3,236.271
dexamethasone acetate,C[C@@H]1C[C@H]2[C@@H]3CCC4=CC(=O)C=C[C@@]4([C@]3([C@H](C[C@@]2([C@]1(C(=O)COC(=O)C)O)C)O)F)C,-4.900,263.0,2.91,13,39,39,1177-87-3,434.504
diazepam,CN1C(=O)CN=C(C2=C1C=CC(=C2)Cl)C3=CC=CC=C3,-3.785,128.6,2.82,"10,13,35","10,35",39,439-14-5,284.746
diazoxide,CC1=NC2=C(C=C(C=C2)Cl)S(=O)(=O)N1,-3.600,327.2,1.20,10,10,39,364-98-7,230.675
dichlorprop,CC(C(=O)O)OC1=C(C=C(C=C1)Cl)Cl,-2.827,117.5,3.43,35,35,39,120-36-5,235.066
diclofenac,C1=CC=C(C(=C1)CC(=O)O)NC2=C(C=CC=C2Cl)Cl,-5.329,157.0,4.51,"13,35",35,39,15307-86-5,296.153
diphenyl,C1=CC=C(C=C1)C2=CC=CC=C2,-4.340,70.0,3.98,35,35,39,92-52-4,154.212
ephedrine,C[C@@H]([C@@H](C1=CC=CC=C1)O)NC,-0.470,34.0,0.93,13,39,30,299-42-3,165.236
erythromycin,CC[C@@H]1[C@@]([C@@H]([C@H](C(=O)[C@@H](C[C@@]([C@@H]([C@H]([C@@H]([C@H](C(=O)O1)C)O[C@H]2C[C@@]([C@H]([C@@H](O2)C)O)(C)OC)C)O[C@H]3[C@@H]([C@H](C[C@H](O3)C)N(C)C)O)(C)O)C)C)O)(C)O,-3.150,191.0,3.06,13,39,39,114-07-8,733.937
estrone,C[C@]12CC[C@H]3[C@H]([C@@H]1CCC2=O)CCC4=C3C=CC(=C4)O,-4.743,255.3,3.13,"13,35",35,39,53-16-7,270.372
ethylparaben,CCOC(=O)C1=CC=C(C=C1)O,-2.348,116.0,2.47,"13,35",35,39,120-47-8,166.176
famotidine,C1=C(N=C(S1)NC(=N)N)CSCCC(=N)NS(=O)(=O)N,-2.490,163.5,-0.64,13,39,39,76824-35-6,337.453
fenoxycarb,CCOC(=O)NCCOC1=CC=C(C=C1)OC2=CC=CC=C2,-4.719,53.5,4.30,35,35,39,72490-01-8,301.342
fenpiclonil,C1=CC(=C(C(=C1)Cl)Cl)C2=CNC=C2C#N,-5.074,152.9,3.86,35,35,39,74738-17-3,237.089
fludrocortisone,C[C@]12CCC(=O)C=C1CC[C@@H]3[C@@]2([C@H](C[C@]4([C@H]3CC[C@@]4(C(=O)CO)O)C)O)F,-3.434,261.0,1.67,35,35,39,127-31-1,380.456
flufenamic acid,C1=CC=C(C(=C1)C(=O)O)NC2=CC=CC(=C2)C(F)(F)F,-4.623,125.0,5.25,35,35,39,530-78-9,281.233
fluometuron,CN(C)C(=O)NC1=CC=CC(=C1)C(F)(F)F,-3.463,163.5,2.42,35,35,39,2164-17-2,232.205
fluorene,C1C2=CC=CC=C2C3=CC=CC=C31,-4.920,116.5,4.18,35,35,39,86-73-7,166.223
flurbiprofen,CC(C1=CC(=C(C=C1)C2=CC=CC=C2)F)C(=O)O,-4.600,112.5,3.72,35,35,39,58-89-9,290.832
griseofulvin,C[C@@H]1CC(=O)C=C([C@]12C(=O)C3=C(O2)C(=C(C=C3OC)OC)Cl)OC,-4.269,219.0,2.18,"10,13,14,35","10,14,35",30,126-07-8,352.770
guaifenesin,COC1=CC=CC=C1OCC(CO)O,-0.598,78.8,1.39,35,35,39,93-14-1,198.218
haloperidol,C1CN(CCC1(C2=CC=C(C=C2)Cl)O)CCCC(=O)C3=CC=C(C=C3)F,-4.429,148.7,4.30,35,35,39,52-86-8,375.871
heroin,CC(=O)O[C@H]1C=C[C@H]2[C@H]3CC4=C5[C@]2([C@H]1OC5=C(C=C4)OC(=O)C)CCN3C,-2.798,173.0,1.58,35,35,39,561-27-3,369.417
hexachlorobenzene,C1(=C(C(=C(C(=C1Cl)Cl)Cl)Cl)Cl)Cl,-7.760,231.0,5.73,35,35,39,118-74-1,284.784
hydroflumethiazide,C1NC2=C(C=C(C(=C2)C(F)(F)F)S(=O)(=O)N)S(=O)(=O)N1,-3.043,272.5,0.36,35,35,39,135-09-1,331.295
isocarboxazid,CC1=CC(=NO1)C(=O)NNCC2=CC=CC=C2,-2.461,105.5,1.49,35,35,39,59-63-2,231.255
lidocaine,CCN(CC)CC(=O)NC1=C(C=CC=C1C)C,-1.739,68.5,2.44,"13,35",35,39,137-58-6,234.343
linuron,CN(C(=O)NC1=CC(=C(C=C1)Cl)Cl)OC,-3.521,93.5,3.20,35,35,39,330-55-2,249.097
lovastatin,CC[C@H](C)C(=O)O[C@H]1C[C@H](C=C2[C@H]1[C@H]([C@H](C=C2)C)CC[C@@H]3C[C@H](CC(=O)O3)O)C,-6.000,174.5,4.26,35,35,39,75330-75-5,404.547
mefenamic acid,CC1=C(C(=CC=C1)NC2=CC=CC=C2C(=O)O)C,-3.770,230.5,5.12,35,35,39,61-68-7,241.290
metoclopramide,CCN(CC)CCNC(=O)C1=CC(=C(C=C1OC)N)Cl,-3.176,147.3,2.62,35,35,39,364-62-5,299.802
metronidazole,CC1=NC=C(N1CCO)[N+](=O)[O-],-1.212,159.0,-0.02,35,35,39,443-48-1,171.156
naphthacene,C1=CC=C2C=C3C=C4C=CC=CC4=CC3=CC2=C1,-8.690,357.0,5.76,35,35,39,92-24-0,228.294
naproxen,C[C@@H](C1=CC2=C(C=C1)C=C(C=C2)OC)C(=O)O,-4.202,154.3,3.18,"10,13,35","10,35",39,22204-53-1,230.263
nevirapine,CC1=C2C(=NC=C1)N(C3=C(C=CC=N3)C(=O)N2)C4CC4,-3.190,248.0,1.81,13,8,8,129618-40-2,266.304
nicotinamide,C1=CC(=CN=C1)C(=O)N,0.913,129.5,-0.37,35,35,39,98-92-0,122.127
nicotinic acid,C1=CC(=CN=C1)C(=O)O,-0.850,236.6,0.36,35,35,39,59-67-6,123.111
omeprazole,CC1=CN=C(C(=C1OC)C)CS(=O)C2=NC3=C(N2)C=CC(=C3)OC,-3.420,156.0,2.23,13,39,39,73590-58-6,345.423
orotic acid,C1=C(NC(=O)NC1=O)C(=O)O,-1.940,345.5,-0.83,13,39,39,65-86-1,156.097
penicillamine,CC(C)([C@H](C(=O)O)N)S,-0.128,204.0,-1.78,35,35,39,52-67-5,149.214
perylene,C1=CC2=C3C(=C1)C4=CC=CC5=C4C(=CC=C5)C3=CC=C2,-8.800,273.5,6.25,35,35,39,198-55-0,252.316
prasterone,C[C@]12CC[C@H]3[C@H]([C@@H]1CCC2=O)CC=C4[C@@]3(CC[C@@H](C4)O)C,-4.062,140.5,3.23,"13,35",35,39,53-43-0,288.431
primidone,CCC1(C(=O)NCNC1=O)C2=CC=CC=C2,-2.640,281.5,0.91,35,35,39,125-33-7,218.256
propranolol,CC(C)NCC(COC1=CC=CC2=CC=CC=C21)O,-2.581,129.0,3.48,"13,14,35","14,35",39,525-66-6,259.349
prostaglandin e2,CCCCC[C@@H](/C=C/[C@H]1[C@@H](CC(=O)[C@@H]1C/C=C\CCCC(=O)O)O)O,-2.470,67.0,2.82,"13,35",35,39,363-24-6,352.471
proxyphylline,CC(CN1C=NC2=C1C(=O)N(C(=O)N2C)C)O,0.623,135.5,-0.77,35,35,39,603-00-9,238.247
pteridine,C1=CN=C2C(=N1)C=NC=N2,0.191,139.5,-0.58,"13,35",39,39,91-18-9,132.126
quinine,COC1=CC2=C(C=CN=C2C=C1)[C@H]([C@@H]3C[C@@H]4CC[N@]3C[C@@H]4C=C)O,-2.780,177.0,3.44,"13,35",35,39,130-95-0,324.424
simvastatin,CCC(C)(C)C(=O)O[C@H]1C[C@H](C=C2[C@H]1[C@H]([C@H](C=C2)C)CC[C@@H]3C[C@H](CC(=O)O3)O)C,-4.145,136.5,4.68,35,35,39,79902-63-9,418.574
sulfadiazine,C1=CN=C(N=C1)NS(=O)(=O)C2=CC=C(C=C2)N,-3.529,252.5,-0.09,35,35,39,68-35-9,250.282
sulfamethazine,CC1=CC(=NC(=N1)NS(=O)(=O)C2=CC=C(C=C2)N)C,-2.268,176.0,0.89,35,35,39,57-68-1,278.336
sulfamethoxazole,CC1=CC(=NO1)NS(=O)(=O)C2=CC=C(C=C2)N,-2.705,171.5,0.89,35,35,39,723-46-6,253.282
sulindac,CC\1=C(C2=C(/C1=C\C3=CC=C(C=C3)S(=O)C)C=CC(=C2)F)CC(=O)O,-4.927,185.3,3.42,"10,13,35","10,35",39,38194-50-2,356.417
sulpiride,CCN1CCCC1CNC(=O)C2=C(C=CC(=C2)S(=O)(=O)N)OC,-2.876,179.0,0.57,35,35,39,15676-16-1,341.432
theobromine,CN1C=NC2=C1C(=O)NC(=O)N2C,-2.538,357.0,-0.78,"13,35",39,39,83-67-0,180.167
theophylline,CN1C2=C(C(=O)N(C1=O)C)NC=N2,-1.363,273.0,-0.25,"13,35",39,40,58-55-9,180.167
triamcinolone acetonide,C[C@]12C[C@@H]([C@]3([C@H]([C@@H]1C[C@@H]4[C@]2(OC(O4)(C)C)C(=O)CO)CCC5=CC(=O)C=C[C@@]53C)F)O,-4.310,293.0,2.53,13,39,39,76-25-5,434.504
triamterene,C1=CC=C(C=C1)C2=NC3=C(N=C(N=C3N=C2N)N)N,-3.946,316.0,0.98,35,39,39,396-01-0,253.269
triflupromazine,CN(C)CCCN1C2=CC=CC=C2SC3=C1C=C(C=C3)C(F)(F)F,-5.300,25.0,5.54,13,8,39,146-54-3,352.424
trimethoprim,COC1=CC(=CC(=C1OC)OC)CC2=CN=C(N=C2N)N,-2.866,200.4,0.91,"10,35","10,35",30,738-70-5,290.323
xanax,ClC1C([H])=C([H])C2=C(C=1[H])C(C1C([H])=C([H])C([H])=C([H])C=1[H])=NC([H])([H])C1=NN=C(C([H])([H])[H])N21,-3.600,230.0,2.12,13,38,39,28981-97-7,308.772